<?xml version="1.0"?>
<VTKFile type="UnstructuredGrid"  version="0.1"  >
<UnstructuredGrid>
<Piece  NumberOfPoints="3920" NumberOfCells="6615">
<Points>
<DataArray  type="Float64"  NumberOfComponents="3"  format="ascii">1.25 0 0  1.249623523370255 0.03067653565364036 0  1.248494320256466 0.06133459290927252 0  1.246613070848363 0.09195570449958429 0  1.243980908340246 0.1225214254119508 0  1.240599418248387 0.1530133439990203 0  1.236470637455976 0.1834130930692022 0  1.231597052986177 0.2137023609503765 0  1.225981600504038 0.2438629025201603 0  1.219627662548161 0.2738765501960873 0  1.21253906649318 0.3037252248790798 0  1.2047200822443 0.333390946843623 0  1.196175419665261 0.3628558465680779 0  1.186910225741296 0.3921021754986144 0  1.176930081478776 0.4211123167402751 0  1.166240998543424 0.4498687956687352 0  1.154849415639108 0.4783542904563622 0  1.142762194629413 0.5065516425062373 0  1.129986616404304 0.5344438667878526 0  1.116530376494394 0.5620141620682582 0  1.102401580435444 0.5892459210324971 0  1.087608738885889 0.61612274028723 0  1.07216076250034 0.642628430241527 0  1.056066956562134 0.6687470248588714 0  1.039337015378182 0.6944627912745027 0  1.02198101643948 0.7197602392723067 0  1.004009414350806 0.7446241306155417 0  0.9854330345332579 0.7690394882257835 0  0.9662630667034212 0.7929916052045569 0  0.9465110581331058 0.8164660536922209 0  0.9261889066936989 0.8394486935587729 0  0.9053088536893338 0.8619256809213336 0  0.8838834764831844 0.8838834764831843 0  0.8619256809213337 0.9053088536893337 0  0.8394486935587729 0.9261889066936989 0  0.8164660536922209 0.9465110581331055 0  0.7929916052045569 0.9662630667034212 0  0.7690394882257835 0.9854330345332578 0  0.7446241306155419 1.004009414350806 0  0.7197602392723067 1.02198101643948 0  0.6944627912745028 1.039337015378182 0  0.6687470248588716 1.056066956562134 0  0.642628430241527 1.07216076250034 0  0.6161227402872301 1.087608738885889 0  0.5892459210324973 1.102401580435444 0  0.5620141620682583 1.116530376494394 0  0.5344438667878527 1.129986616404304 0  0.5065516425062373 1.142762194629413 0  0.4783542904563623 1.154849415639108 0  0.4498687956687353 1.166240998543424 0  0.4211123167402751 1.176930081478776 0  0.3921021754986145 1.186910225741296 0  0.3628558465680779 1.196175419665261 0  0.333390946843623 1.2047200822443 0  0.30372522487908 1.21253906649318 0  0.2738765501960872 1.219627662548161 0  0.2438629025201604 1.225981600504038 0  0.2137023609503767 1.231597052986177 0  0.1834130930692022 1.236470637455976 0  0.1530133439990203 1.240599418248387 0  0.122521425411951 1.243980908340246 0  0.09195570449958432 1.246613070848363 0  0.06133459290927266 1.248494320256466 0  0.03067653565364033 1.249623523370255 0  7.654042494670958e-17 1.25 0  -0.03067653565364018 1.249623523370255 0  -0.06133459290927251 1.248494320256466 0  -0.09195570449958416 1.246613070848363 0  -0.1225214254119508 1.243980908340246 0  -0.1530133439990202 1.240599418248387 0  -0.1834130930692021 1.236470637455976 0  -0.2137023609503766 1.231597052986177 0  -0.2438629025201602 1.225981600504038 0  -0.2738765501960871 1.219627662548161 0  -0.3037252248790798 1.21253906649318 0  -0.3333909468436229 1.2047200822443 0  -0.3628558465680777 1.196175419665261 0  -0.3921021754986143 1.186910225741296 0  -0.4211123167402749 1.176930081478776 0  -0.4498687956687352 1.166240998543424 0  -0.4783542904563621 1.154849415639108 0  -0.5065516425062372 1.142762194629413 0  -0.5344438667878524 1.129986616404304 0  -0.5620141620682584 1.116530376494394 0  -0.5892459210324972 1.102401580435444 0  -0.61612274028723 1.087608738885889 0  -0.642628430241527 1.07216076250034 0  -0.6687470248588713 1.056066956562134 0  -0.6944627912745025 1.039337015378182 0  -0.7197602392723067 1.02198101643948 0  -0.7446241306155417 1.004009414350806 0  -0.7690394882257834 0.9854330345332579 0  -0.7929916052045567 0.9662630667034213 0  -0.8164660536922207 0.9465110581331059 0  -0.8394486935587731 0.9261889066936988 0  -0.8619256809213337 0.9053088536893337 0  -0.8838834764831843 0.8838834764831844 0  -0.9053088536893334 0.8619256809213338 0  -0.9261889066936986 0.8394486935587732 0  -0.9465110581331058 0.8164660536922208 0  -0.9662630667034212 0.7929916052045569 0  -0.9854330345332578 0.7690394882257836 0  -1.004009414350806 0.7446241306155419 0  -1.02198101643948 0.7197602392723068 0  -1.039337015378182 0.6944627912745027 0  -1.056066956562134 0.6687470248588714 0  -1.07216076250034 0.6426284302415273 0  -1.087608738885889 0.6161227402872302 0  -1.102401580435444 0.5892459210324973 0  -1.116530376494394 0.5620141620682586 0  -1.129986616404304 0.5344438667878525 0  -1.142762194629413 0.5065516425062374 0  -1.154849415639108 0.4783542904563624 0  -1.166240998543424 0.4498687956687354 0  -1.176930081478776 0.4211123167402754 0  -1.186910225741296 0.3921021754986143 0  -1.196175419665261 0.362855846568078 0  -1.2047200822443 0.3333909468436231 0  -1.21253906649318 0.3037252248790801 0  -1.219627662548161 0.2738765501960876 0  -1.225981600504038 0.2438629025201608 0  -1.231597052986177 0.2137023609503765 0  -1.236470637455976 0.1834130930692023 0  -1.240599418248387 0.1530133439990204 0  -1.243980908340246 0.122521425411951 0  -1.246613070848363 0.09195570449958466 0  -1.248494320256466 0.06133459290927246 0  -1.249623523370255 0.03067653565364041 0  -1.25 1.530808498934192e-16 0  -1.249623523370255 -0.0306765356536401 0  -1.248494320256466 -0.06133459290927215 0  -1.246613070848363 -0.09195570449958437 0  -1.243980908340246 -0.1225214254119507 0  -1.240599418248387 -0.1530133439990201 0  -1.236470637455976 -0.183413093069202 0  -1.231597052986177 -0.2137023609503762 0  -1.225981600504038 -0.2438629025201605 0  -1.219627662548161 -0.2738765501960873 0  -1.21253906649318 -0.3037252248790798 0  -1.2047200822443 -0.3333909468436228 0  -1.196175419665261 -0.3628558465680776 0  -1.186910225741296 -0.392102175498614 0  -1.176930081478776 -0.4211123167402752 0  -1.166240998543424 -0.4498687956687352 0  -1.154849415639108 -0.4783542904563621 0  -1.142762194629413 -0.5065516425062371 0  -1.129986616404304 -0.5344438667878523 0  -1.116530376494394 -0.5620141620682583 0  -1.102401580435444 -0.5892459210324971 0  -1.087608738885889 -0.6161227402872299 0  -1.07216076250034 -0.6426284302415269 0  -1.056066956562134 -0.6687470248588712 0  -1.039337015378182 -0.6944627912745025 0  -1.02198101643948 -0.7197602392723067 0  -1.004009414350806 -0.7446241306155416 0  -0.9854330345332579 -0.7690394882257834 0  -0.9662630667034213 -0.7929916052045566 0  -0.946511058133106 -0.8164660536922207 0  -0.9261889066936989 -0.8394486935587731 0  -0.9053088536893338 -0.8619256809213336 0  -0.8838834764831847 -0.8838834764831843 0  -0.8619256809213338 -0.9053088536893334 0  -0.8394486935587733 -0.9261889066936986 0  -0.8164660536922214 -0.9465110581331053 0  -0.7929916052045574 -0.9662630667034209 0  -0.7690394882257841 -0.9854330345332574 0  -0.7446241306155414 -1.004009414350806 0  -0.7197602392723066 -1.02198101643948 0  -0.6944627912745027 -1.039337015378182 0  -0.6687470248588716 -1.056066956562134 0  -0.6426284302415273 -1.07216076250034 0  -0.6161227402872302 -1.087608738885889 0  -0.5892459210324973 -1.102401580435444 0  -0.5620141620682586 -1.116530376494394 0  -0.5344438667878531 -1.129986616404304 0  -0.506551642506238 -1.142762194629413 0  -0.4783542904563629 -1.154849415639108 0  -0.4498687956687349 -1.166240998543424 0  -0.4211123167402749 -1.176930081478776 0  -0.3921021754986143 -1.186910225741296 0  -0.3628558465680781 -1.196175419665261 0  -0.3333909468436231 -1.2047200822443 0  -0.3037252248790802 -1.21253906649318 0  -0.2738765501960876 -1.219627662548161 0  -0.2438629025201608 -1.225981600504038 0  -0.2137023609503771 -1.231597052986176 0  -0.1834130930692029 -1.236470637455976 0  -0.1530133439990199 -1.240599418248387 0  -0.1225214254119506 -1.243980908340246 0  -0.09195570449958419 -1.246613070848363 0  -0.06133459290927254 -1.248494320256466 0  -0.03067653565364049 -1.249623523370255 0  -2.296212748401287e-16 -1.25 0  0.03067653565364003 -1.249623523370255 0  0.06133459290927207 -1.248494320256466 0  0.09195570449958373 -1.246613070848363 0  0.1225214254119501 -1.243980908340246 0  0.1530133439990195 -1.240599418248387 0  0.1834130930692024 -1.236470637455976 0  0.2137023609503766 -1.231597052986177 0  0.2438629025201604 -1.225981600504038 0  0.2738765501960872 -1.219627662548161 0  0.3037252248790797 -1.21253906649318 0  0.3333909468436227 -1.2047200822443 0  0.3628558465680776 -1.196175419665261 0  0.3921021754986139 -1.186910225741296 0  0.4211123167402745 -1.176930081478776 0  0.4498687956687345 -1.166240998543424 0  0.4783542904563625 -1.154849415639108 0  0.5065516425062375 -1.142762194629413 0  0.5344438667878527 -1.129986616404304 0  0.5620141620682583 -1.116530376494394 0  0.589245921032497 -1.102401580435444 0  0.6161227402872298 -1.087608738885889 0  0.6426284302415269 -1.07216076250034 0  0.6687470248588712 -1.056066956562134 0  0.6944627912745023 -1.039337015378182 0  0.7197602392723061 -1.02198101643948 0  0.7446241306155411 -1.004009414350806 0  0.7690394882257838 -0.9854330345332576 0  0.792991605204557 -0.9662630667034211 0  0.8164660536922209 -0.9465110581331058 0  0.8394486935587729 -0.9261889066936989 0  0.8619256809213336 -0.9053088536893338 0  0.8838834764831842 -0.8838834764831847 0  0.9053088536893333 -0.8619256809213339 0  0.9261889066936986 -0.8394486935587733 0  0.9465110581331053 -0.8164660536922214 0  0.9662630667034209 -0.7929916052045574 0  0.9854330345332574 -0.7690394882257843 0  1.004009414350806 -0.7446241306155416 0  1.02198101643948 -0.7197602392723066 0  1.039337015378182 -0.6944627912745027 0  1.056066956562134 -0.6687470248588716 0  1.07216076250034 -0.6426284302415274 0  1.087608738885889 -0.6161227402872304 0  1.102401580435443 -0.5892459210324974 0  1.116530376494394 -0.5620141620682587 0  1.129986616404304 -0.5344438667878532 0  1.142762194629413 -0.50655164250623
[...]
<PointData  Scalars="f_2272080"> 
<DataArray  type="Float64"  Name="f_2272080"  format="ascii">8.4242028549215853e+00  8.7036376201893741e+00  8.9562015603052529e+00  9.1236719784995000e+00  9.4009382925866056e+00  9.6499708143068670e+00  9.8400211428303912e+00  1.0026696203317673e+01  1.0416259329933213e+01  1.0759363018702826e+01  1.1129122514638700e+01  1.1440309115251335e+01  1.1721947945952950e+01  1.2159568165078447e+01  1.2653062685260346e+01  1.3261254567607040e+01  1.3653406992031233e+01  1.4320285059811917e+01  1.4916631983150699e+01  1.5582534693704874e+01  1.6431482634683814e+01  1.7050536733706480e+01  1.7868409114384960e+01  1.8459245133622137e+01  1.9094372690305150e+01  1.9774172313992292e+01  2.0408403743642157e+01  2.1119267668854949e+01  2.1756880495283458e+01  2.2594352599712348e+01  2.3326629902450414e+01  2.4256901176751647e+01  2.5324395732069391e+01  2.6063160182461466e+01  2.6797545692934914e+01  2.7553312129612454e+01  2.7990522884154647e+01  2.8634992875429816e+01  2.9075022762351932e+01  2.9373793108845462e+01  2.9798378707711127e+01  3.0385328006035653e+01  3.0765770366450965e+01  3.1134307075227952e+01  3.1560360074636410e+01  3.1813281617782739e+01  3.2135952066374898e+01  3.2549354070534413e+01  3.3102030365369551e+01  3.3400623464554840e+01  3.3580150928420217e+01  3.3797455286821524e+01  3.4103321389545670e+01  3.4407329332324089e+01  3.4759899600687689e+01  3.4877225425952503e+01  3.5148148564754798e+01  3.5358031230709123e+01  3.5620174154893661e+01  3.5900419000615983e+01  3.6003363624907244e+01  3.6110400295386441e+01  3.6281825032319205e+01  3.6322838691169196e+01  3.6372365265302854e+01  3.6348013436394417e+01  3.6262618339458285e+01  3.6184197800762831e+01  3.6106013070835814e+01  3.6005290787811710e+01  3.5563138460896631e+01  3.5363164456532623e+01  3.5205303161133166e+01  3.5106581951248572e+01  3.4778963277009517e+01  3.4654127824517793e+01  3.4500807596232498e+01  3.3952614796054661e+01  3.3691233878075877e+01  3.3227754852007443e+01  3.2910631640856032e+01  3.2522006495292622e+01  3.1944462934194281e+01  3.1371753960006341e+01  3.0946108896077558e+01  3.0309941726042183e+01  2.9365067172185672e+01  2.8421643803460601e+01  2.7672986022376886e+01  2.6592172851174769e+01  2.5624564689577099e+01  2.4696602862122159e+01  2.4237529372804111e+01  2.3689857236603203e+01  2.2789162378944809e+01  2.2452979960157915e+01  2.1881352341709789e+01  2.1723639149258176e+01  2.1587410619649066e+01  2.1587248329406876e+01  2.1719417096086794e+01  2.2245687751320407e+01  2.2930778411644543e+01  2.3765941835065171e+01  2.5169440769044702e+01  2.7069685970752456e+01  2.9020002724035511e+01  3.3106883430506599e+01  3.5084038387299827e+01  3.6995539618557657e+01  4.3125165090220513e+01  4.5917985793148418e+01  5.0695908757585222e+01  5.5251452076933987e+01  6.1466861745169574e+01  6.7379557186611933e+01  7.3872819878700767e+01  8.0459711286113958e+01  8.8720934150477234e+01  9.8951142523390388e+01  1.0581913032342788e+02  1.1276635860015503e+02  1.2278335161553385e+02  1.3278329442880209e+02  1.4274961486749385e+02  1.5336389877766274e+02  1.6061472607706082e+02  1.7000689066072437e+02  1.8011371094546692e+02  1.9202518262382998e+02  2.0058271694901620e+02  2.1213646521675309e+02  2.2155002644525572e+02  2.2797578327071020e+02  2.3590744853164972e+02  2.4590490099567327e+02  2.5384242594597714e+02  2.5938495283290064e+02  2.6456297258632537e+02  2.6906019789802889e+02  2.7465548119451631e+02  2.7950774312236314e+02  2.8404946752924724e+02  2.8625903477304325e+02  2.8831649106450101e+02  2.8934658090555337e+02  2.9053861418368399e+02  2.9033234048430432e+02  2.8918099776545279e+02  2.8787148862878144e+02  2.8580097459362571e+02  2.8217572972804589e+02  2.7885000663059134e+02  2.7502264787583306e+02  2.6979948104649372e+02  2.6536225720483958e+02  2.5953422257310774e+02  2.5358591596315750e+02  2.4993014166372851e+02  2.4244879505624294e+02  2.3652426505406984e+02  2.3001205860421049e+02  2.2311904736728584e+02  2.1711681299079370e+02  2.0851425705163032e+02  2.0256437280148918e+02  1.9516816615339505e+02  1.8870242681474397e+02  1.8464948018596644e+02  1.8215294098268510e+02  1.7404026034243751e+02  1.6885893362070573e+02  1.5971656763718079e+02  1.5066961013873518e+02  1.4667516682768886e+02  1.4411764786401648e+02  1.3894224689668064e+02  1.3442745467263393e+02  1.3103752304702027e+02  1.2617767930678468e+02  1.2354352073070336e+02  1.1741620225501472e+02  1.1282743064020538e+02  1.0765494007097963e+02  1.0428284166519416e+02  1.0004989958311148e+02  9.6553932861828102e+01  9.3233150301375431e+01  8.7176013285779135e+01  8.3633126801723151e+01  8.0849495018915604e+01  7.9052724048943674e+01  7.5177422895637548e+01  7.2409139785783424e+01  6.9724937938318476e+01  6.7467993987683954e+01  6.5109139881048876e+01  6.0991998058099171e+01  5.8254718872424462e+01  5.6547252611639898e+01  5.5073976005235181e+01  5.2755031864256956e+01  4.9248785478203821e+01  4.6762100371027749e+01  4.5019595544851065e+01  4.2803732324491101e+01  4.1401762423604744e+01  4.0189708452091281e+01  3.8070012130972842e+01  3.6365457523270486e+01  3.5185299315937854e+01  3.4036007158710383e+01  3.2007031465934681e+01  3.0687662467550460e+01  2.9133755286479470e+01  2.7854255965090296e+01  2.6940033779776687e+01  2.5838893192109936e+01  2.4334199528271132e+01  2.3213315268545827e+01  2.2260343710206254e+01  2.1011139833996868e+01  2.0019054746264935e+01  1.8928737176653897e+01  1.7844026965033329e+01  1.6922371457651668e+01  1.6043716153513788e+01  1.4975250732971318e+01  1.4169984201604896e+01  1.3373761703854383e+01  1.2737101285157385e+01  1.2141420884823232e+01  1.1418005393907055e+01  1.0916804687847863e+01  1.0349737115875129e+01  9.9142195291845869e+00  9.3909937025325938e+00  9.0034516612268742e+00  8.7280512508340067e+00  8.4845581346903582e+00  8.1375653391258087e+00  7.8731662304599572e+00  7.6913798558428024e+00  7.5185331327162555e+00  7.3830632510350611e+00  7.3490860704772372e+00  7.3467535487405886e+00  7.3939773089327314e+00  7.3936610764373922e+00  7.4134975333170257e+00  7.4632003380859642e+00  7.4740101901274807e+00  7.6069289617709925e+00  7.6497892292679772e+00  7.9282956869204604e+00  8.1366083513503593e+00  2.4032275883355823e+01  2.3160176173535749e+01  2.2107875466334864e+01  2.1084397576075769e+01  2.0146622478711365e+01  1.8727075583660252e+01  1.7863274686127731e+01  1.7091158770067661e+01  1.6196464791284978e+01  1.5279662657330709e+01  1.4410672781204815e+01  1.3678978641972416e+01  1.2798828976309787e+01  1.2143019366124120e+01  1.1517664053365550e+01  1.0960923692782758e+01  1.0235201316586844e+01  9.6348252022842882e+00  9.3587936608096598e+00  9.1667296490811854e+00  9.0951390076478855e+00  9.1268074736105032e+00  9.3073575044283938e+00  9.6712387230275851e+00  1.0024141586260736e+01  1.0660574565249718e+01  1.1499316422837691e+01  1.2306849350789109e+01  1.3285503284700118e+01  1.4179324552878120e+01  1.5013820593271502e+01  1.6267395668555558e+01  1.7267717159699728e+01  1.8668026443035739e+01  1.9877498896941550e+01  2.1310108637331741e+01  2.2885992507959692e+01  2.4945624771809140e+01  2.6163524264320479e+01  2.7983116154491281e+01  2.9762173591452449e+01  3.1590438186430053e+01  3.3499313944783673e+01  3.4568020126637585e+01  3.6725686456536430e+01  3.9021692440439509e+01  4.1616488775643710e+01  4.3380718914461688e+01  4.5593719726624585e+01  4.8050805900532971e+01  5.0383813061410031e+01  5.3208740679826008e+01  5.5892533931669668e+01  5.8536003138766176e+01  6.2423435780165306e+01  6.5634687975110566e+01  6.8756046384973772e+01  7.3104816107544451e+01  7.6418832850346931e+01  7.9649824448120270e+01  8.3019540014174098e+01  8.7063198247323854e+01  9.0842791783221855e+01  9.4731919058502257e+01  9.8681546564891192e+01  1.0208471786126911e+02  1.0624239234334368e+02  1.1031504626236519e+02  1.1472819067020552e+02  1.2014501701169773e+02  1.2452779539375661e+02  1.2985317945230162e+02  1.3488283423420114e+02  1.3946278571986818e+02  1.4354292496051602e+02  1.5075147165169386e+02  1.5568510378358343e+02  1.6123150979487571e+02  1.6572942095173488e+02  1.7185380853298170e+02  1.7637289635927158e+02  1.8204994054349945e+02  1.8774946593259278e+02  1.9455258516889572e+02  1.9959494672815845e+02  2.0517371653388332e+02  2.1182033265214298e+02  2.1804860316452130e+02  2.2330163773644381e+02  2.3058085630327784e+02  2.3790356457455161e+02  2.4266564263432880e+02  2.4867152606835288e+02  2.5493419125620161e+02  2.5965715637107115e+02  2.6394588029990746e+02  2.6942034582944370e+02  2.7300346525538151e+02  2.7757922967803455e+02  2.8203410291927702e+02  2.8680377449244543e+02  2.9148499354490713e+02  2.9430736806023754e+02  2.9697849946506074e+02  2.9843947173466034e+02  2.9919094005505207e+02  2.9861642811938674e+02  2.9682009316152903e+02  2.9638396358127886e+02  2.9599662400977900e+02  2.9283052027548439e+02  2.9105118030758291e+02  2.8753583885726351e+02  2.8471763649584358e+02  2.8195063836957360e+02  2.7658525244447304e+02  2.7209968621791722e+02  2.6852487654020712e+02  2.6192035864266359e+02  2.5744000227232317e+02  2.5391579978671848e+02  2.4688418747110254e+02  2.3752651748790376e+02  2.2944778438027114e+02  2.2300239134860715e+02  2.1823469033482340e+02  2.1154109151480426e+02  1.9842063500164289e+02  1.9020296904010647e+02  1.8037206478895908e+02  1.7221515018024621e+02  1.6385858916389222e+02  1.5885288668109501e+02  1.5038900986131765e+02  1.4083009544754103e+02  1.3179078496859799e+02  1.2427425302815996e+02  1.1700085105191093e+02  1.1038603711206939e+02  1.0212400558251514e+02  9.4403658498040102e+01  8.6787474666339889e+01  8.0843697034851147e+01  7.6063371798067649e+01  7.1037525762128467e+01  6.4976144098565044e+01  5.9965648913376924e+01  5.5740534766798909e+01  4.9600248213837808e+01  4.6690408122576024e+01  4.3827259372259370e+01  3.9489486835042491e+01  3.5923472729116298e+01  3.2597487073434657e+01  2.9563106437067649e+01  2.7147808853748050e+01  2.5312488011738175e+01  2.3324951385084791e+01  2.1953503259174880e+01  2.0934828716657684e+01  2.0132128072435982e+01  1.9749955946388553e+01  1.9400811152329219e+01  1.9287140725184880e+01  1.9591868764849774e+01  1.9725868371277151e+01  1.9845099340231453e+01  2.0343051970458159e+01  2.0720543578704330e+01  2.1232631838633086e+01  2.1493270594455474e+01  2.2133582760076656e+01  2.3187157786161944e+01  2.4026596572007008e+01  2.4981553137158784e+01  2.5714405053559197e+01  2.6884626895082963e+01  2.8055897022174520e+01  2.9301141023327986e+01  3.0155097223703144e+01  3.0812091698791161e+01  3.1728728492884908e+01  3.2387827904691612e+01  3.3063912228634088e+01  3.3942250106353647e+01  3.4456279499050254e+01  3.5211704032664208e+01  3.6219304484640162e+01  3.6631285738418470e+01  3.6859217436522492e+01  3.7365775513028659e+01  3.8162167645158874e+01  3.8585429490341262e+01  3.9270053931976690e+01  3.9672303511475164e+01  4.0078653225339202e+01  4.0712427589639660e+01  4.1079257645922254e+01  4.1702209977764163e+01  4.1808521321742312e+01  4.1648114198060171e+01  4.1616331019830689e+01  4.1800598568483700e+01  4.1696142981714608e+01  4.1927654768240060e+01  4.2127861637018370e+01  4.2554701804412623e+01  4.2347281400731987e+01  4.2204988812863817e+01  4.2031326161647122e+01  4.2035756537408574e+01  4.1977516656652277e+01  4.2098487115847391e+01  4.2066133774741758e+01  4.1999310509090790e+01  4.2021278777074762e+01  4.1861475456866415e+01  4.1463141428575319e+01  4.1045751068557543e+01  4.0560991428090396e+01  4.0062940750521129e+01  3.9623149388652195e+01  3.9545192220404175e+01  3.9546058988588044e+01  3.9644235051216455e+01  3.9714810803336945e+01  3.9861082114860416e+01  3.8966931381965125e+01  3.8705487443111494e+01  3.8724257840223267e+01  3.8763454066912963e+01  3.8550316490412861e+01  3.7837021820436178e+01  3.7490329011577373e+01  3.7652887820818421e+01  3.7674537649759024e+01  3.7174342255682596e+01  3.6500902151401597e+01  3.6209036685208289e+01  3.5803726461778680e+01  3.5384683893891285e+01  3.4739637498247298e+01  3.4309874169755965e+01  3.3752543603832997e+01  3.3329602917029845e+01  3.2393441712302639e+01  3.1914889904929399e+01  3.1690226343271487e+01  3.1043558976986890e+01  3.0360214812184953e+01  2.9312896600023603e+01  2.8357802072504331e+01  2.7521589051116891e+01  2.6721362294988317e+01  2.6159805260892881e+01  2.4949521345222582e+01  1.4056982774057134e+01  1.8342739227937003e+01  1.0425864938147237e+01  2.2578846912399047e+01  9.1722794139805366e+00  2.6940688320202824e+01  1.1800582401698021e+01  3.1294693113910469e+01  1.8817878861685852e+01  3.3825712010428774e+01  2.8099577245635171e+01  3.6073398301296272e+01  3.7772679261693213e+01  3.7214262462920466e+01  5.1410089366842655e+01  3.8059685050892575e+01  6.7300983504427464e+01  3.8049597714200949e+01  1.3195192502439696e+01  8.2005196281262386e+01  9.8718164718444488e+00  1.6425250973120416e+01  8.5181318904445256e+00  1.9942693389548818e+01  1.0478374831140142e+01  1.4743054604703422e+01  2.4870884069147390e+01  3.7366053673059263e+01  1.0227430624938004e+01  2.1088507996527607e+01  2.8791261925996306e+01  9.6815384722967806e+01  9.6854265766368517e+00  2.6673062493958337e+01  1.5361605629626066e+01  3.2053827931105666e+01  1.3738021686450367e+01  1.0702759052614230e+01  3.5813099699971687e+01  1.3340761782205446e+01  8.4096809140835909e+00  1.8514603929204398e+01  3.0878740395642993e+01  2.4163039525483295e+01  1.7060311679007661e+01  3.4533812562786544e+01  2.2276660106479000e+01  1.1283400913546248e+02  8.9586984180571747e+00  2.2689634851389027e+01  1.2376427708815610e+01  3.4718466178257472e+01  3.3265031787954378e+01  3.3346878686625359e+01  9.5988402151190595e+00  1.2677875204014859e+01  1.2853607464048582e+02  2.8519354339000284e+01  2.0065652336847297e+01  1.7121288903369752e+01  3.6835460469862156e+01  2.2742202357424034e+01  2.7279444764614020e+01  3.1904880362757254e+01  3.0836559246160533e+01  3.3846842345670844e+01  3.5517537614270367e+01  4.3391535819308643e+01  3.3085824560780836e+01  3.1601370304518344e+01  1.4543192135030787e+02  1.0781490536050807e+01  3.8114165546591494e+01  4.3793519710360727e+01  2.8761902196109443e+01  2.6377093655259603e+01  3.1075101095307588e+01  2.0569797735388047e+01  1.1605674203230537e+01  3.4155455284765246e+01  3.6696286148571147e+01  6.1136679789752591e+01  3.7821009097621676e+01  3.8452203442829941e+01  1.6582566169436284e+01  1.6540438950150249e+02  5.5045942695089245e+01  3.9021163264665716e+01  2.5443937966067299e+01  3.7191728995486542e+01  3.6417380465484669e+01  9.6870194302275330e+00  3.6526769634363305e+01  9.6808481008629350e+00  2.8297922543284592e+01  3.5646731523676692e+01  5.0583101621296223e+01  1.3981873282169902e+01  7.3200826433869011e+01  2.9656293575923740e+01  1.8307773905637748e+02  1.0636460514163439e+01  1.3474511668521419e+01  9.0686118956835209e+00  3.9178313020946469e+01  8.3238921528927516e+00  8.2521944287030973e+00  7.9307609840254463e+00  7.4631803583616204e+01  1.7435741236322155e+01  3.4865475182813420e+01  1.4928126357372081e+01  1.1554707382866923e+01  2.5915541495239289e+01  3.9633229112610330e+01  2.0509365136119783e+01  1.7082973674414479e+01  3.6851739568996763e+01  1.9959565382196669e+01  6.3431520373080005e+01  3.8999085001207355e+01  3.6983823144433011e+01  1.3186512104642889e+01  1.2151424590372326e+01  1.4415982322776181e+01  4.8535944005207135e+01  1.9798856446091511e+02  1.1872873540103928e+01  9.5155820030758811e+00  3.2048441558010026e+01  2.4091987265489266e+01  3.6043247741036488e+01  9.0368109531190228e+00  6.6407245244609101e+01  2.2088421003037244e+01  8.8353085591519360e+01  1.7819773871241363e+01  1.5241303126446468e+01  2.3853207490006067e+01  8.9312558494390757e+01  1.1318534273674164e+01  9.7394419643888028e+00  9.4174006235536964e+00  2.6181810884592601e+01  2.7116436507526519e+01  2.8816703224261474e+01  1.4874638062334803e+01  9.5204316001537794e+00  1.8191441265021666e+01  3.1847324156751512e+01  2.8489133296945521e+01  2.3281628351775449e+01  8.9181793067795532e+00  2.1828661519518626e+01  2.3866977130415282e+01  1.8495834909863078e+01  1.0724845972850005e+01  1.3305223561548226e+01  1.7586839174457094e+01  1.4431445243975674e+01  9.2333234572712026e+00  3.6948183428981288e+01  2.4679110833187867e+01  3.9338649701507038e+01  1.6246125919551467e+01  2.1712260770603518e+01  3.0642761411860057e+01  3.1941661400251782e+01  1.1314394408677858e+01  1.2434289585896765e+01  9.4025524389938369e+00  3.4286226524052339e+01  3.6680522805454309e+01  1.0500889527075023e+02  2.1728336664260468e+02  3.8135014362916912e+01  2.9053767450063926e+01  2.7623791770516615e+01  1.0612731422660348e+01  1.9970702490740361e+01  2.2707465259215066e+01  2.6371163133044870e+01  8.0289576806881939e+01  3.4722258896866379e+01  3.3717047042573114e+01  1.6294874190683384e+01  2.5287912104937078e+01  1.4673840376268409e+01  1.2258859982854647e+01  1.0286114226454653e+02  2.2019962202933840e+01  3.5042995072616925e+01  3.0048174356119457e+01  9.7374961259863237e+00  1.9728925586452103e+01  3.2550276550923144e+01  8.1782535792645312e+00  1.9922879075063673e+01  1.0786884875523100e+01  3.6387770385470247e+01  1.0880487284978800e+01  2.3936260208702830e+01  3.6038536898915332e+01  2.3196736827078149e+02  4.6346219389001931e+01  2.9867112052210384e+01  8.8896867399028885e+00  1.2529502618805449e+01  3.7789918783623691e+01  2.1566922305674321e+01  3.5794114412895901e+01  2.3462260940313957e+01  3.1765183046403909e+01  3.2874264463085787e+01  1.5886409438528858e+01  9.6711328751610296e+01  5.6097862758284421e+01  3.2185236123914819e+01  3.0488082471882379e+01  2.0968486015553420e+01  3.3018541111048044e+01  3.1340983666406338e+01  3.5570501494854810e+01  3.3571572284698718e+01  1.1833777728183442e+01  9.5051158196650452e+00  1.4610489011606905e+01  1.3802139326077024e+01  2.8537703871724471e+01  1.2309158623811034e+02  1.2144797167212168e+02  3.6519694950094880e+01  2.6364337883067702e+01  7.7669898663739589e+00  5.5238858045219573e+01  3.2934449700433198e+01  1.3636174498739285e+02  2.6706906671569602e+01  3.5400474903298104e+01  2.4898164463134501e+02  3.3934178371569608e+01  3.6602386804385382e+01  3.3388433873252744e+01  1.8114366739806734e+01  2.0414011760221086e+01  9.9373624302618939e+00  3.7376546332494975e+01  2.2923155752609940e+01  1.3934185663466326e+02  3.4777050290023247e+01  2.9704628914118864e+01  3.8078631927136371e+01  2.0651961031442124e+01  3.0613741644557670e+01  8.6820964070591717e+00  3.5455984972707206e+01  2.5025009464779082e+01  3.6366749153092357e+01  4.1556540011839004e+01  1.1010013260203159e+02  4.6716007482117469e+01  4.1422348466706396e+01  3.4794505917204866e+01  3.4156030651234055e+01  2.5800483965683662e+02  1.0583422701800183e+01  4.0921862288225839e+01  7.5695863641242582e+01  8.1113922022667737e+01  3.8404229460542076e+01  3.7974726868163906e+01  3.5257181975263215e+01  2.9115270174732871e+01  1.5639057460807882e+01  3.8923058752871015e+01  1.5553999238456250e+01  3.7975196738330183e+01  1.7637338574212041e+01  3.8524815520526474e+01  1.4884248163158489e+02  3.2268380531094330e+01  2.1309344702105104e+01  2.4855395283680277e+01  9.5769199306977356e+01  3.9220469066240945e+01  1.2404848602787711e+01  3.5339490911233312e+01  2.0959008734919209e+01  3.4467367501029571e+01  1.2801181413010960e+02  3.9586317064348648e+01  6.2175736737589887e+01  3.9324337960346007e+01  7.8031201693685190e+00  3.3738727186270374e+01  2.6823058110045459e+01  3.6917209843169424e+01  3.5583284586509969e+01  2.9857272772010020e+01  1.7146692593006364e+01  8.9178793724069820e+01  2.4984457718174436e+01  9.3603853920175091e+00  1.0052362847989485e+01  3.2021087150239481e+01  3.5634850738922772e+01  1.1681894916298347e+01  2.0036674821754939e+01  2.7101696628571017e+02  3.5200549906165442e+01  3.7217907753872005e+01  3.7337865487964976e+01  3.5557651592598106e+01  7.9102168365594094e+00  9.1457136459418074e+00  1.5744548743379775e+02  1.9463427214355118e+01  1.6398499