<?xml version="1.0"?>
<VTKFile type="UnstructuredGrid"  version="0.1"  >
<UnstructuredGrid>
<Piece  NumberOfPoints="3920" NumberOfCells="6615">
<Points>
<DataArray  type="Float64"  NumberOfComponents="3"  format="ascii">1.25 0 0  1.249623523370255 0.03067653565364036 0  1.248494320256466 0.06133459290927252 0  1.246613070848363 0.09195570449958429 0  1.243980908340246 0.1225214254119508 0  1.240599418248387 0.1530133439990203 0  1.236470637455976 0.1834130930692022 0  1.231597052986177 0.2137023609503765 0  1.225981600504038 0.2438629025201603 0  1.219627662548161 0.2738765501960873 0  1.21253906649318 0.3037252248790798 0  1.2047200822443 0.333390946843623 0  1.196175419665261 0.3628558465680779 0  1.186910225741296 0.3921021754986144 0  1.176930081478776 0.4211123167402751 0  1.166240998543424 0.4498687956687352 0  1.154849415639108 0.4783542904563622 0  1.142762194629413 0.5065516425062373 0  1.129986616404304 0.5344438667878526 0  1.116530376494394 0.5620141620682582 0  1.102401580435444 0.5892459210324971 0  1.087608738885889 0.61612274028723 0  1.07216076250034 0.642628430241527 0  1.056066956562134 0.6687470248588714 0  1.039337015378182 0.6944627912745027 0  1.02198101643948 0.7197602392723067 0  1.004009414350806 0.7446241306155417 0  0.9854330345332579 0.7690394882257835 0  0.9662630667034212 0.7929916052045569 0  0.9465110581331058 0.8164660536922209 0  0.9261889066936989 0.8394486935587729 0  0.9053088536893338 0.8619256809213336 0  0.8838834764831844 0.8838834764831843 0  0.8619256809213337 0.9053088536893337 0  0.8394486935587729 0.9261889066936989 0  0.8164660536922209 0.9465110581331055 0  0.7929916052045569 0.9662630667034212 0  0.7690394882257835 0.9854330345332578 0  0.7446241306155419 1.004009414350806 0  0.7197602392723067 1.02198101643948 0  0.6944627912745028 1.039337015378182 0  0.6687470248588716 1.056066956562134 0  0.642628430241527 1.07216076250034 0  0.6161227402872301 1.087608738885889 0  0.5892459210324973 1.102401580435444 0  0.5620141620682583 1.116530376494394 0  0.5344438667878527 1.129986616404304 0  0.5065516425062373 1.142762194629413 0  0.4783542904563623 1.154849415639108 0  0.4498687956687353 1.166240998543424 0  0.4211123167402751 1.176930081478776 0  0.3921021754986145 1.186910225741296 0  0.3628558465680779 1.196175419665261 0  0.333390946843623 1.2047200822443 0  0.30372522487908 1.21253906649318 0  0.2738765501960872 1.219627662548161 0  0.2438629025201604 1.225981600504038 0  0.2137023609503767 1.231597052986177 0  0.1834130930692022 1.236470637455976 0  0.1530133439990203 1.240599418248387 0  0.122521425411951 1.243980908340246 0  0.09195570449958432 1.246613070848363 0  0.06133459290927266 1.248494320256466 0  0.03067653565364033 1.249623523370255 0  7.654042494670958e-17 1.25 0  -0.03067653565364018 1.249623523370255 0  -0.06133459290927251 1.248494320256466 0  -0.09195570449958416 1.246613070848363 0  -0.1225214254119508 1.243980908340246 0  -0.1530133439990202 1.240599418248387 0  -0.1834130930692021 1.236470637455976 0  -0.2137023609503766 1.231597052986177 0  -0.2438629025201602 1.225981600504038 0  -0.2738765501960871 1.219627662548161 0  -0.3037252248790798 1.21253906649318 0  -0.3333909468436229 1.2047200822443 0  -0.3628558465680777 1.196175419665261 0  -0.3921021754986143 1.186910225741296 0  -0.4211123167402749 1.176930081478776 0  -0.4498687956687352 1.166240998543424 0  -0.4783542904563621 1.154849415639108 0  -0.5065516425062372 1.142762194629413 0  -0.5344438667878524 1.129986616404304 0  -0.5620141620682584 1.116530376494394 0  -0.5892459210324972 1.102401580435444 0  -0.61612274028723 1.087608738885889 0  -0.642628430241527 1.07216076250034 0  -0.6687470248588713 1.056066956562134 0  -0.6944627912745025 1.039337015378182 0  -0.7197602392723067 1.02198101643948 0  -0.7446241306155417 1.004009414350806 0  -0.7690394882257834 0.9854330345332579 0  -0.7929916052045567 0.9662630667034213 0  -0.8164660536922207 0.9465110581331059 0  -0.8394486935587731 0.9261889066936988 0  -0.8619256809213337 0.9053088536893337 0  -0.8838834764831843 0.8838834764831844 0  -0.9053088536893334 0.8619256809213338 0  -0.9261889066936986 0.8394486935587732 0  -0.9465110581331058 0.8164660536922208 0  -0.9662630667034212 0.7929916052045569 0  -0.9854330345332578 0.7690394882257836 0  -1.004009414350806 0.7446241306155419 0  -1.02198101643948 0.7197602392723068 0  -1.039337015378182 0.6944627912745027 0  -1.056066956562134 0.6687470248588714 0  -1.07216076250034 0.6426284302415273 0  -1.087608738885889 0.6161227402872302 0  -1.102401580435444 0.5892459210324973 0  -1.116530376494394 0.5620141620682586 0  -1.129986616404304 0.5344438667878525 0  -1.142762194629413 0.5065516425062374 0  -1.154849415639108 0.4783542904563624 0  -1.166240998543424 0.4498687956687354 0  -1.176930081478776 0.4211123167402754 0  -1.186910225741296 0.3921021754986143 0  -1.196175419665261 0.362855846568078 0  -1.2047200822443 0.3333909468436231 0  -1.21253906649318 0.3037252248790801 0  -1.219627662548161 0.2738765501960876 0  -1.225981600504038 0.2438629025201608 0  -1.231597052986177 0.2137023609503765 0  -1.236470637455976 0.1834130930692023 0  -1.240599418248387 0.1530133439990204 0  -1.243980908340246 0.122521425411951 0  -1.246613070848363 0.09195570449958466 0  -1.248494320256466 0.06133459290927246 0  -1.249623523370255 0.03067653565364041 0  -1.25 1.530808498934192e-16 0  -1.249623523370255 -0.0306765356536401 0  -1.248494320256466 -0.06133459290927215 0  -1.246613070848363 -0.09195570449958437 0  -1.243980908340246 -0.1225214254119507 0  -1.240599418248387 -0.1530133439990201 0  -1.236470637455976 -0.183413093069202 0  -1.231597052986177 -0.2137023609503762 0  -1.225981600504038 -0.2438629025201605 0  -1.219627662548161 -0.2738765501960873 0  -1.21253906649318 -0.3037252248790798 0  -1.2047200822443 -0.3333909468436228 0  -1.196175419665261 -0.3628558465680776 0  -1.186910225741296 -0.392102175498614 0  -1.176930081478776 -0.4211123167402752 0  -1.166240998543424 -0.4498687956687352 0  -1.154849415639108 -0.4783542904563621 0  -1.142762194629413 -0.5065516425062371 0  -1.129986616404304 -0.5344438667878523 0  -1.116530376494394 -0.5620141620682583 0  -1.102401580435444 -0.5892459210324971 0  -1.087608738885889 -0.6161227402872299 0  -1.07216076250034 -0.6426284302415269 0  -1.056066956562134 -0.6687470248588712 0  -1.039337015378182 -0.6944627912745025 0  -1.02198101643948 -0.7197602392723067 0  -1.004009414350806 -0.7446241306155416 0  -0.9854330345332579 -0.7690394882257834 0  -0.9662630667034213 -0.7929916052045566 0  -0.946511058133106 -0.8164660536922207 0  -0.9261889066936989 -0.8394486935587731 0  -0.9053088536893338 -0.8619256809213336 0  -0.8838834764831847 -0.8838834764831843 0  -0.8619256809213338 -0.9053088536893334 0  -0.8394486935587733 -0.9261889066936986 0  -0.8164660536922214 -0.9465110581331053 0  -0.7929916052045574 -0.9662630667034209 0  -0.7690394882257841 -0.9854330345332574 0  -0.7446241306155414 -1.004009414350806 0  -0.7197602392723066 -1.02198101643948 0  -0.6944627912745027 -1.039337015378182 0  -0.6687470248588716 -1.056066956562134 0  -0.6426284302415273 -1.07216076250034 0  -0.6161227402872302 -1.087608738885889 0  -0.5892459210324973 -1.102401580435444 0  -0.5620141620682586 -1.116530376494394 0  -0.5344438667878531 -1.129986616404304 0  -0.506551642506238 -1.142762194629413 0  -0.4783542904563629 -1.154849415639108 0  -0.4498687956687349 -1.166240998543424 0  -0.4211123167402749 -1.176930081478776 0  -0.3921021754986143 -1.186910225741296 0  -0.3628558465680781 -1.196175419665261 0  -0.3333909468436231 -1.2047200822443 0  -0.3037252248790802 -1.21253906649318 0  -0.2738765501960876 -1.219627662548161 0  -0.2438629025201608 -1.225981600504038 0  -0.2137023609503771 -1.231597052986176 0  -0.1834130930692029 -1.236470637455976 0  -0.1530133439990199 -1.240599418248387 0  -0.1225214254119506 -1.243980908340246 0  -0.09195570449958419 -1.246613070848363 0  -0.06133459290927254 -1.248494320256466 0  -0.03067653565364049 -1.249623523370255 0  -2.296212748401287e-16 -1.25 0  0.03067653565364003 -1.249623523370255 0  0.06133459290927207 -1.248494320256466 0  0.09195570449958373 -1.246613070848363 0  0.1225214254119501 -1.243980908340246 0  0.1530133439990195 -1.240599418248387 0  0.1834130930692024 -1.236470637455976 0  0.2137023609503766 -1.231597052986177 0  0.2438629025201604 -1.225981600504038 0  0.2738765501960872 -1.219627662548161 0  0.3037252248790797 -1.21253906649318 0  0.3333909468436227 -1.2047200822443 0  0.3628558465680776 -1.196175419665261 0  0.3921021754986139 -1.186910225741296 0  0.4211123167402745 -1.176930081478776 0  0.4498687956687345 -1.166240998543424 0  0.4783542904563625 -1.154849415639108 0  0.5065516425062375 -1.142762194629413 0  0.5344438667878527 -1.129986616404304 0  0.5620141620682583 -1.116530376494394 0  0.589245921032497 -1.102401580435444 0  0.6161227402872298 -1.087608738885889 0  0.6426284302415269 -1.07216076250034 0  0.6687470248588712 -1.056066956562134 0  0.6944627912745023 -1.039337015378182 0  0.7197602392723061 -1.02198101643948 0  0.7446241306155411 -1.004009414350806 0  0.7690394882257838 -0.9854330345332576 0  0.792991605204557 -0.9662630667034211 0  0.8164660536922209 -0.9465110581331058 0  0.8394486935587729 -0.9261889066936989 0  0.8619256809213336 -0.9053088536893338 0  0.8838834764831842 -0.8838834764831847 0  0.9053088536893333 -0.8619256809213339 0  0.9261889066936986 -0.8394486935587733 0  0.9465110581331053 -0.8164660536922214 0  0.9662630667034209 -0.7929916052045574 0  0.9854330345332574 -0.7690394882257843 0  1.004009414350806 -0.7446241306155416 0  1.02198101643948 -0.7197602392723066 0  1.039337015378182 -0.6944627912745027 0  1.056066956562134 -0.6687470248588716 0  1.07216076250034 -0.6426284302415274 0  1.087608738885889 -0.6161227402872304 0  1.102401580435443 -0.5892459210324974 0  1.116530376494394 -0.5620141620682587 0  1.129986616404304 -0.5344438667878532 0  1.142762194629413 -0.50655164250623
[...]
<PointData  Scalars="f_3026394"> 
<DataArray  type="Float64"  Name="f_3026394"  format="ascii">8.7134977561338776e+00  8.7349713328231093e+00  8.7491442601288121e+00  8.5694914379946052e+00  8.4148843873185015e+00  8.2960113518812459e+00  8.1011375552004843e+00  7.8349526776129066e+00  7.5390388156404224e+00  7.2786457709575272e+00  7.0095211446635810e+00  6.4419288894642115e+00  6.1685508800056281e+00  5.7522757058950056e+00  5.1076461162512015e+00  4.5679953835672027e+00  4.0527078770454938e+00  3.3997478657058280e+00  2.6857850026484806e+00  1.7521393289913838e+00  1.0556613857636097e+00  3.2063561060364076e-01  -3.7857359830530274e-01  -1.2245794844347442e+00  -1.9731299231022450e+00  -2.8953939843422565e+00  -3.6919127344973650e+00  -4.6743318530648770e+00  -5.7578339236520035e+00  -6.7975915049961877e+00  -7.6935147525323675e+00  -8.8006119655720418e+00  -9.8363446918280335e+00  -1.0855097569368532e+01  -1.1615026154789382e+01  -1.2752710398411933e+01  -1.3374448544184013e+01  -1.4337892083855658e+01  -1.5537626004439476e+01  -1.6075254453932544e+01  -1.6819382150988382e+01  -1.8021297056277842e+01  -1.8934165436036572e+01  -1.9524301885290434e+01  -2.0396256052949525e+01  -2.1422706131722745e+01  -2.2457554835474774e+01  -2.3043745423185552e+01  -2.4143234723002152e+01  -2.5104491674612081e+01  -2.5946356360012814e+01  -2.6726888131168188e+01  -2.7741936478992400e+01  -2.8472417772689244e+01  -2.9349081713686221e+01  -3.0105879911595881e+01  -3.0695666532032217e+01  -3.1354847966566062e+01  -3.2429082338449540e+01  -3.3562066633072000e+01  -3.4223634248250924e+01  -3.4841773529074906e+01  -3.5371350610602462e+01  -3.6083545133282016e+01  -3.6650371023878954e+01  -3.7246839366710766e+01  -3.7848135193139250e+01  -3.8237996188302262e+01  -3.9069154938878896e+01  -3.9348868126720774e+01  -3.9668892308141729e+01  -3.9976216977003688e+01  -4.0166817161053856e+01  -4.0485252891921824e+01  -4.0808321808005118e+01  -4.1155510038280475e+01  -4.1232904084687405e+01  -4.1219304623982516e+01  -4.1101461207701682e+01  -4.0784197777104026e+01  -4.0424577139957194e+01  -4.0061134889869443e+01  -3.9704607589295492e+01  -3.9292964992619630e+01  -3.7777314084200299e+01  -3.6347686697359890e+01  -3.5496908668797680e+01  -3.4681904152481032e+01  -3.3245894931460228e+01  -3.0346984937699872e+01  -2.8678249739571633e+01  -2.6849781690709698e+01  -2.5775242770213680e+01  -2.2710317482889554e+01  -2.0051230137139392e+01  -1.6749708334394604e+01  -1.1947686393161518e+01  -8.5393394425248079e+00  -4.1655714179645384e+00  -3.0676943297550752e-01  3.3768507617135732e+00  9.0963055189460640e+00  1.4699794333364114e+01  1.7334810549857472e+01  2.2492053954323360e+01  2.7503503485194646e+01  3.2133985040240105e+01  4.1482016500774897e+01  4.9220182362661497e+01  5.3081774337783884e+01  6.4776399842256183e+01  7.0667528993451342e+01  7.5907989289865213e+01  8.3538271412055536e+01  8.7496976442600328e+01  9.8299194786120438e+01  1.0685732130211927e+02  1.1425047101727000e+02  1.2269712765569186e+02  1.3044010397519091e+02  1.3647878165812696e+02  1.4172939236804001e+02  1.4715389594122007e+02  1.5141861755439899e+02  1.5500406048443219e+02  1.5780552831023394e+02  1.5972892999178239e+02  1.6086671497676818e+02  1.6132803833468307e+02  1.6084855499337615e+02  1.5942372880229539e+02  1.5739834661933460e+02  1.5450791399989171e+02  1.5139577172252217e+02  1.4750349405323121e+02  1.4313031462297710e+02  1.3776793282756418e+02  1.3214004317055051e+02  1.2587303148407715e+02  1.1969246341336017e+02  1.1324359845873882e+02  1.0671171389055645e+02  9.9650824936270709e+01  9.3557151972319929e+01  8.4899088337620597e+01  7.7877316251725119e+01  6.7987552331967080e+01  6.1290370824500506e+01  5.1617046716068252e+01  4.4505493127846059e+01  3.6244802002651319e+01  2.8711688778935240e+01  1.8895168011020562e+01  1.3539063052391249e+01  5.3884572643042912e+00  -1.9276450180772466e+00  -7.2552972018744457e+00  -1.1212864808056983e+01  -1.5929611969243796e+01  -2.0760263724751944e+01  -2.3498761307106030e+01  -2.6286147956284278e+01  -2.9190966343591484e+01  -3.2372293278498994e+01  -3.5711309456825759e+01  -3.8421311424276695e+01  -3.9706000583393170e+01  -4.2087996597147338e+01  -4.3954672570399538e+01  -4.4819863157436274e+01  -4.6123987718316243e+01  -4.6885772398893934e+01  -4.8599027166425806e+01  -4.9208591764150981e+01  -4.9845274810819099e+01  -5.0215092180935699e+01  -5.0683068322124434e+01  -5.1025598084849562e+01  -5.1105322641554089e+01  -5.1090303357643407e+01  -5.0984281405405241e+01  -5.0464335321512145e+01  -5.0396973566997858e+01  -5.0204163445515803e+01  -4.9758606216206033e+01  -4.9084480239376745e+01  -4.8861736731947424e+01  -4.8607312910034793e+01  -4.8065800513746730e+01  -4.7107357485231269e+01  -4.6174833964705464e+01  -4.5846310511457474e+01  -4.5072519595495535e+01  -4.4478963337995381e+01  -4.3636496751802845e+01  -4.2921661406350822e+01  -4.1736542658936735e+01  -4.0482743869136726e+01  -3.9767917892121140e+01  -3.9057912363762469e+01  -3.8074195023006055e+01  -3.6582045108713636e+01  -3.5233100281710492e+01  -3.4226363133939046e+01  -3.3420922825121096e+01  -3.2086831338569489e+01  -3.0883326138805423e+01  -3.0071701401647257e+01  -2.9025265409751743e+01  -2.7268597821954902e+01  -2.6265283149912516e+01  -2.5153395965428913e+01  -2.3133259652605613e+01  -2.2064391384293334e+01  -2.0665211088201538e+01  -1.9116955671290196e+01  -1.7967531534526419e+01  -1.7067002533286384e+01  -1.5682124373024516e+01  -1.4500618114195737e+01  -1.3429527328309380e+01  -1.1981607536958089e+01  -1.0887083135221889e+01  -9.6142694524426542e+00  -8.4582947686212879e+00  -7.4167893285339836e+00  -6.1831895498447640e+00  -5.1405669248429655e+00  -4.1148747384000819e+00  -2.9978795979636295e+00  -2.2211367420301191e+00  -1.3832915939187214e+00  -1.9716940820808998e-01  4.8530071495364130e-01  1.4219678120909716e+00  2.0257507294434398e+00  2.8832247844547694e+00  3.4556631186650533e+00  3.9824919462891035e+00  4.5789638224017795e+00  5.2059343059836047e+00  5.6167334444719152e+00  6.0100441449814985e+00  6.5391858924517710e+00  7.0000244929573272e+00  7.4187526067652492e+00  7.6945867649453668e+00  7.9547303221096222e+00  8.1509644320271608e+00  8.3305357025246423e+00  8.4935961671116100e+00  8.4881949931400946e+00  8.5395330483473320e+00  8.4724925896590939e+00  8.6188031749524043e+00  8.6848441421150717e+00  2.5060438152023167e+01  2.5152657605236037e+01  2.5234507950916484e+01  2.5226353018258234e+01  2.5118678218602593e+01  2.4582471306312041e+01  2.4183648409827040e+01  2.3830815757589864e+01  2.3364594332270180e+01  2.2832984851073686e+01  2.2239795718124348e+01  2.1375897688518545e+01  2.0418160114804383e+01  1.9664568514294793e+01  1.8726178195805687e+01  1.7679396188326173e+01  1.6499693941640583e+01  1.4686214056468163e+01  1.3324609221843488e+01  1.1753864832721353e+01  1.0288072565756327e+01  8.8953772727797364e+00  7.4429714031754832e+00  5.3464590166643822e+00  3.5327827414558048e+00  1.3336104235400694e+00  -9.4079867632372260e-01  -2.4950613426065469e+00  -4.5083816435840580e+00  -6.2087189337762405e+00  -7.8141339072136988e+00  -9.8988390822757353e+00  -1.2211172701699567e+01  -1.4344718569469199e+01  -1.5651249642196168e+01  -1.8287909669570162e+01  -2.0190584066169244e+01  -2.1887944439788132e+01  -2.3393040325352878e+01  -2.5246706724913825e+01  -2.6916555250367690e+01  -2.9095896312658166e+01  -3.0857877852251477e+01  -3.2243400591876650e+01  -3.3800133336840311e+01  -3.5355382121865027e+01  -3.6780261602586720e+01  -3.8115778378290393e+01  -3.9521129668508451e+01  -4.0753269964086144e+01  -4.2267784369446836e+01  -4.3827324223609402e+01  -4.5065456555695199e+01  -4.6160816285089723e+01  -4.7274167560691531e+01  -4.8151888099578173e+01  -4.9169293857650430e+01  -5.0524668846285643e+01  -5.1449270100290406e+01  -5.1936634516124812e+01  -5.2915006943207636e+01  -5.3495920602098799e+01  -5.4301116250401115e+01  -5.5006602495859177e+01  -5.5834872172839759e+01  -5.6116932719197813e+01  -5.6633406475767615e+01  -5.7096611216002884e+01  -5.6646575617649297e+01  -5.6536789033161881e+01  -5.6646257132947504e+01  -5.6720299022202461e+01  -5.6613495628002191e+01  -5.6473935229716865e+01  -5.6379824766688373e+01  -5.5989227202447267e+01  -5.5627789595270158e+01  -5.4976205203816797e+01  -5.3960055779833603e+01  -5.2987604099853606e+01  -5.1154335769648426e+01  -5.0193657167946085e+01  -4.8511543001466748e+01  -4.6700002560547453e+01  -4.5478244335968924e+01  -4.3686282703913946e+01  -4.1506934880750123e+01  -3.7881131101810134e+01  -3.5714806878715308e+01  -3.4210491809342471e+01  -3.0186967670865613e+01  -2.7647198069999796e+01  -2.3943823157077098e+01  -1.9799143016913764e+01  -1.5852793008937002e+01  -1.2827833824785827e+01  -8.5093518970072477e+00  -4.3544347364148823e+00  9.0928357268195492e-01  8.3440332139998059e+00  1.5429446033399902e+01  2.2750584312342895e+01  2.9335503913731152e+01  3.7504864986101538e+01  4.4399098352792926e+01  5.1229801319111139e+01  5.9080038208773217e+01  6.7886050428837351e+01  7.1310950402858126e+01  8.0242800286927718e+01  8.8866820687986660e+01  9.5775803372770056e+01  1.0253895473691256e+02  1.0748219143930025e+02  1.1209959746927990e+02  1.1710272529518411e+02  1.2187804353074760e+02  1.2774564559521829e+02  1.3305455588095685e+02  1.3797029658422323e+02  1.4266765964523381e+02  1.4674642421892682e+02  1.5047783613209580e+02  1.5378114480720970e+02  1.5674902893306751e+02  1.5904084772890803e+02  1.6137472028281243e+02  1.6267633637598772e+02  1.6379128195884007e+02  1.6402776540565742e+02  1.6375909003111627e+02  1.6296284738463345e+02  1.6157236487365543e+02  1.5970735039318831e+02  1.5745210874038131e+02  1.5414996510137885e+02  1.5111070304230913e+02  1.4666091153683644e+02  1.4204520935815003e+02  1.3697637008802616e+02  1.3185925263020312e+02  1.2486694142597722e+02  1.1780719574398633e+02  1.1161003894910996e+02  1.0491373203440743e+02  9.7380452915196457e+01  9.1647518509832125e+01  8.4945259831650120e+01  7.7289569263546483e+01  7.3626144817719833e+01  6.9521979029356871e+01  6.1711604575562383e+01  5.4855932578590725e+01  4.7652707870068895e+01  4.2288433328976680e+01  3.4469580603025435e+01  3.0168136384299665e+01  2.4760026462654178e+01  2.1101103495596281e+01  1.6489232927643400e+01  1.1922176996750411e+01  7.8027564928280171e+00  3.4901460607669810e+00  -5.7503727471225474e-01  -4.3194185436750319e+00  -7.8045336656583419e+00  -1.1467997366831884e+01  -1.5676972759627253e+01  -1.9517366167862118e+01  -2.1675948016421575e+01  -2.4364784234889651e+01  -2.7533791496675335e+01  -3.0145912639846635e+01  -3.2893306439720725e+01  -3.4393914907440831e+01  -3.5698777693278807e+01  -3.7764852907877405e+01  -3.9514701979673738e+01  -4.1002492395686701e+01  -4.2533491527661802e+01  -4.3615809945106491e+01  -4.4771234794353546e+01  -4.5665624988550782e+01  -4.6459930210010732e+01  -4.7823564208478608e+01  -4.7946386800332860e+01  -4.8074406793548725e+01  -4.8731856045049341e+01  -4.8355239761893699e+01  -4.8263180964656442e+01  -4.8276500549910772e+01  -4.8143288690653605e+01  -4.8080302125067583e+01  -4.8767154896640164e+01  -4.7916507173476980e+01  -4.7342623667897136e+01  -4.7029919819045745e+01  -4.6607855836357672e+01  -4.6293713567313780e+01  -4.5198015410067413e+01  -4.4569935151610629e+01  -4.4106708349669617e+01  -4.3428157521483712e+01  -4.2582538741459786e+01  -4.1634801613356714e+01  -4.0928303283877156e+01  -4.0145108602142805e+01  -3.8963992126017473e+01  -3.7711096233529148e+01  -3.6726820464552617e+01  -3.5900517236245932e+01  -3.5025384648442817e+01  -3.3812970076255183e+01  -3.2814039277777596e+01  -3.1363980395073526e+01  -2.9784414343492731e+01  -2.8775027631962882e+01  -2.7001821004318607e+01  -2.5726051533565887e+01  -2.4134155400342465e+01  -2.3173834696935163e+01  -2.1282692345929110e+01  -2.0111246181043743e+01  -1.8180162295572639e+01  -1.7031334919019617e+01  -1.6162250749193444e+01  -1.4768412719266179e+01  -1.2400172849626356e+01  -1.1114143180717264e+01  -9.5971698230548856e+00  -8.1688858015831904e+00  -6.3902384360678379e+00  -4.9206679054084459e+00  -3.2031672775541717e+00  -2.0597010126658000e+00  -6.0819102014475324e-01  1.6001104348233062e+00  3.3450571477507651e+00  4.5812600589979668e+00  6.7677031508258620e+00  8.2110089154455217e+00  1.0433159013958047e+01  1.1879427713903613e+01  1.3243428086492328e+01  1.4385056926402619e+01  1.6161564127344118e+01  1.7197524723015267e+01  1.8432603788254792e+01  1.9910763999706763e+01  2.0836809860023006e+01  2.1936901619242661e+01  2.2801658086516504e+01  2.3419955477701613e+01  2.3846268500273528e+01  2.4304364518328345e+01  2.4864995557774378e+01  1.5701767765598770e+01  1.3475220753793085e+01  1.3670267354191731e+01  7.4300189894034876e+00  8.2297896767785215e+00  -1.4715609983532303e+00  2.1325396092915971e-01  -1.0782755657099292e+01  -1.0932187023345710e+01  -1.8774975560562840e+01  -2.1735968788968247e+01  -2.5612864029796643e+01  -3.0755803021746583e+01  -3.1062690919264824e+01  -3.8661708318455005e+01  -3.5571718714108727e+01  -4.4786234261042900e+01  -3.9096362485065804e+01  1.2290404768825892e+01  -4.8316390939375694e+01  1.2041103876622634e+01  8.6867799223257904e+00  9.2473686860438864e+00  1.8177962082246786e+01  1.4200514259475622e+01  1.8969543333892140e+01  1.3439860495459248e+01  -4.1689484417548591e+01  2.6144681092342625e+00  1.9045869395191535e+00  5.2941909211685667e+00  -5.0409677693642365e+01  6.2861531135564999e+00  -6.8245257031650945e+00  -5.9157767184589183e+00  -5.3278476875598972e+00  -3.3778085019349002e+00  1.1484622391514769e+01  -4.2591784138830754e+01  1.0084416523175900e+01  9.9077189060271937e+00  2.0401279717840112e+01  -1.4900225901043523e+01  -1.6201582635582756e+01  5.7545918151354671e+00  -1.4673815551746010e+01  -1.6121844108251086e+01  -5.2292264914524409e+01  5.4494727457852772e+00  -2.6122117108617755e+00  -1.5428013284235031e+00  -4.2576263160253724e+01  -2.5578934405739542e+01  -2.1322093790024226e+01  1.1099743786912535e+01  1.7280371172583578e+01  -5.2345597092773367e+01  -1.1673361251234455e+01  -1.1541247466217298e+01  -9.1599706324530867e+00  -2.2480073329921243e+01  1.6738558224806617e+01  1.0007675117725567e+01  -2.6970627764273377e+01  2.2035546352886154e-01  -9.8579793691153341e+00  -2.7231227322826644e+01  -3.3388735200224978e+01  -4.2198525084180531e+01  -1.7880056462734359e+01  -5.1845238343526447e+01  2.7101204592114536e+00  -2.9340823306114867e+01  -3.5627259887558914e+01  -2.0570412134735477e+01  -2.1201480188314264e+01  -4.0039835683580414e+01  1.0134150823028671e+01  1.4975341701755683e+01  -2.4205071942784805e+01  -3.2089636571135060e+01  -4.0742175875726723e+01  -2.5992302348012363e+01  -2.9500906624873608e+01  1.4833926378410107e+01  -4.9503549090709917e+01  -4.1298665383183987e+01  -3.5306296575031425e+01  2.7357463542691298e+00  -3.6063809258029444e+01  -1.8158605428741833e+01  5.5167723131599224e+00  -3.1684554414478502e+01  1.2189558819905526e+01  -3.6654841766348397e+01  -2.9322875508070961e+01  -3.6252997217464575e+01  -3.6731610610185044e+00  -4.5109459732456642e+01  -7.4221428607762023e+00  -4.5960229735330465e+01  1.0474206221175477e+01  8.3342166662705601e+00  1.0386494585281678e+01  -3.9684599326779967e+01  6.3842088225398683e+00  9.7935189013922734e+00  8.1362715666747025e+00  -4.7649410378166699e+01  2.9261974052319344e+00  -2.1830594154118891e+01  1.7923358012981300e+01  1.0163509603747235e+01  -3.2733416318919680e+01  -3.3601694289943950e+01  4.9753417310959076e+00  1.7621791145846416e+01  -3.4360381761962174e+01  -6.0313384167440021e-01  -4.5586608099172750e+01  -4.1991192699977027e+01  -3.8978140783078580e+01  1.3588945733638800e+01  1.7498635447458341e+01  6.7661163454758313e+00  -3.8608093359116594e+01  -4.0881068329957266e+01  1.4358744481182956e+01  1.1956574673370506e+01  -1.3886429894184134e+01  2.0611948373075059e+01  -4.1049195637023921e+01  9.5859838116057769e+00  -4.3190163240193378e+01  2.1675422139049601e+01  -5.0692450991180877e+01  2.1640242806221309e+01  2.0801854079800254e+01  -2.6813285820052119e+01  -4.8682852795878851e+01  2.1093426650857014e-01  2.9454841143101378e+00  9.8299847207975137e+00  -9.1380765306281013e+00  1.7032168620869456e+01  1.3642874178635731e+01  1.2546360964524087e+01  1.0964810721503953e+01  1.0749728527527198e+01  -2.5449660781384122e+01  -9.5545537818276944e+00  -5.3043927315377699e+00  1.0880680769891962e+01  -1.4823587113438677e+01  -1.1400620323086925e-01  7.9793568606303467e+00  1.5324275709869061e+01  -2.8940565904511271e+00  -8.4758034469249921e+00  -4.5568199700297214e+00  5.8570205300175937e+00  -3.7412165866454203e+01  -1.8151550940085784e+01  -3.8062746415724376e+01  -7.2007973714239890e+00  1.4095481502978215e+01  8.3139076542669716e+00  4.7164714902280371e+00  9.4004044846677204e-01  1.6491964508468481e+01  8.1197791513447459e+00  -1.6877715931328098e+01  -2.8070450361839772e+01  -5.0571181118719707e+01  -3.4495026815705934e+01  -4.3735925672805500e+01  -1.3757461877031337e+01  -4.7125706628419319e+00  3.0518915984396977e+00  -1.3875701255367083e+01  -1.4181715693973253e+01  -1.7871857605316837e+01  -4.6391838473106553e+01  -6.3138506982140195e+00  -2.5074337308683270e+00  -7.2711993090248930e+00  5.9281945625110177e+00  -5.3378444555468034e+00  -1.0627311300568041e+00  -5.3174912364101068e+01  -1.9834501377749014e+01  -4.1945053209996608e+01  -1.5775539393250085e+01  6.2121960981876851e+00  1.6285064747758646e+01  -1.6515330349766419e+01  9.5515909182020842e+00  -1.2891560459198638e+01  1.4585287278226934e+01  -3.9923706295427181e+01  1.2517486297462693e+01  9.9905832253054143e+00  -1.2358368287148405e+01  -2.7096119206840932e+01  -3.5167082825922051e+01  -2.6834537270735397e+00  7.4750361541281896e+00  -1.0241527857203778e+00  -3.2816455711601819e+01  -1.3551669199115198e+01  -4.4755192023075729e+01  -1.8417206428764555e+01  -1.9415680317069807e+01  -2.2421062717468704e+01  1.1023235447261639e+01  -4.9296154663301955e+01  -4.0535812782275464e+01  -9.4576839750822064e+00  -1.2833678505550902e+01  -1.1157368759815764e+01  -1.1755728905819261e+01  -2.3285245603192198e+01  -2.7227801158252959e+01  -4.1855180944488332e+01  8.4123024754747799e+00  9.8309564518386043e+00  5.1470460035011696e+00  1.9878510139098598e+01  2.2376410237567832e+00  -5.4044445456927285e+01  -5.1353502486138609e+01  -1.6011989453034634e+01  1.9363015596207454e+01  8.4162847455323728e+00  -3.8818603233319386e+01  -1.9525518353547209e+01  -5.1437295931317195e+01  -1.9572443497157430e+01  -4.1375079177285087e+01  -1.9967699037855940e+01  -4.3808217028911024e+01  -2.4373951564032296e+01  1.2128413866718728e+00  8.8404994934641412e-01  2.2763205745646246e+01  1.3635348258472767e+01  -4.5090694256882664e+01  4.0788520792713205e+00  -5.3891975293386409e+01  -2.3453921757210882e+01  -2.6293139830435141e+01  -3.7165233413852775e+01  -1.7425995490468702e+00  -2.3236946323814166e+01  4.9035187299306591e+00  -2.7935782017960054e+01  -4.2805924295853357e+00  -2.8911101947642429e+01  -3.3056415415798746e+01  -5.3670582219581114e+01  -3.4129430533320004e+01  -3.1377946903026384e+01  -2.7715879376115897e+01  -2.5508362747748240e+01  -1.0087793608793886e+01  2.8236120020353153e+00  -3.4996139415651669e+01  -4.6792173201407380e+01  -4.9213569474573248e+01  -2.4390452378472762e+01  -2.1952847877810470e+01  -2.9705080520683463e+01  -2.3580462890645165e+01  4.1447210763979108e+00  -4.0909101932896981e+01  1.5428855027119084e+01  -4.0502235414977264e+01  -8.8446395679317558e+00  -4.2728357048751704e+01  -5.0156367304657799e+01  -4.0559232641002417e+01  -3.4858956255230793e+00  -2.2256896921600866e+00  -5.1524213688937316e+01  -2.8987988776272431e+01  -1.5931777523469002e+00  -1.9155951829313697e+01  4.2659978252795252e+00  -4.1816341954121498e+01  -5.1534387671383762e+01  -3.2836223202962088e+01  -4.1975106859463203e+01  -3.1126984050514785e+01  8.8521620781068986e+00  -2.9907741129008436e+01  -1.0839567790080874e+01  -4.2507051413088078