<?xml version="1.0"?>
<VTKFile type="UnstructuredGrid"  version="0.1"  >
<UnstructuredGrid>
<Piece  NumberOfPoints="2912" NumberOfCells="5086">
<Points>
<DataArray  type="Float64"  NumberOfComponents="3"  format="ascii">-20 2.5 0  -20 0 0  -1 0 0  -0.9996988186962042 0.02454122852291233 0  -0.9987954562051724 0.04906767432741797 0  -0.9972904566786902 0.07356456359966773 0  -0.9951847266721968 0.09801714032956083 0  -0.99247953459871 0.1224106751992163 0  -0.989176509964781 0.1467304744553618 0  -0.9852776423889412 0.1709618887603012 0  -0.9807852804032304 0.1950903220161286 0  -0.9757021300385285 0.21910124015687 0  -0.970031253194544 0.2429801799032641 0  -0.9637760657954398 0.2667127574748985 0  -0.9569403357322088 0.2902846772544624 0  -0.9495281805930367 0.3136817403988914 0  -0.9415440651830207 0.3368898533922203 0  -0.9329927988347388 0.3598950365349883 0  -0.9238795325112867 0.3826834323650899 0  -0.9142097557035307 0.4052413140049899 0  -0.9039892931234433 0.427555093430282 0  -0.8932243011955152 0.4496113296546069 0  -0.8819212643483549 0.4713967368259979 0  -0.8700869911087113 0.4928981922297841 0  -0.857728610000272 0.5141027441932218 0  -0.8448535652497071 0.5349976198870972 0  -0.8314696123025453 0.5555702330196022 0  -0.8175848131515836 0.5758081914178454 0  -0.8032075314806448 0.5956993044924335 0  -0.7883464276266062 0.6152315905806269 0  -0.773010453362737 0.6343932841636455 0  -0.7572088465064846 0.6531728429537766 0  -0.7409511253549589 0.6715589548470186 0  -0.7242470829514668 0.6895405447370671 0  -0.7071067811865475 0.7071067811865476 0  -0.6895405447370669 0.7242470829514669 0  -0.6715589548470184 0.740951125354959 0  -0.6531728429537765 0.7572088465064847 0  -0.6343932841636454 0.7730104533627371 0  -0.6152315905806267 0.7883464276266063 0  -0.5956993044924334 0.8032075314806449 0  -0.5758081914178453 0.8175848131515837 0  -0.555570233019602 0.8314696123025455 0  -0.534997619887097 0.8448535652497072 0  -0.5141027441932217 0.8577286100002721 0  -0.492898192229784 0.8700869911087115 0  -0.4713967368259977 0.881921264348355 0  -0.4496113296546067 0.8932243011955152 0  -0.4275550934302819 0.9039892931234434 0  -0.4052413140049897 0.9142097557035307 0  -0.3826834323650897 0.9238795325112867 0  -0.3598950365349882 0.9329927988347388 0  -0.3368898533922199 0.9415440651830208 0  -0.3136817403988914 0.9495281805930367 0  -0.2902846772544622 0.9569403357322089 0  -0.2667127574748983 0.9637760657954398 0  -0.2429801799032639 0.970031253194544 0  -0.2191012401568697 0.9757021300385286 0  -0.1950903220161282 0.9807852804032304 0  -0.1709618887603012 0.9852776423889412 0  -0.1467304744553616 0.989176509964781 0  -0.1224106751992162 0.99247953459871 0  -0.09801714032956065 0.9951847266721969 0  -0.07356456359966733 0.9972904566786902 0  -0.04906767432741801 0.9987954562051724 0  -0.02454122852291214 0.9996988186962042 0  6.123233995736766e-17 1 0  0.02454122852291226 0.9996988186962042 0  0.04906767432741813 0.9987954562051724 0  0.07356456359966745 0.9972904566786902 0  0.09801714032956077 0.9951847266721968 0  0.1224106751992163 0.99247953459871 0  0.1467304744553617 0.989176509964781 0  0.1709618887603014 0.9852776423889412 0  0.1950903220161283 0.9807852804032304 0  0.2191012401568698 0.9757021300385286 0  0.242980179903264 0.970031253194544 0  0.2667127574748984 0.9637760657954398 0  0.2902846772544623 0.9569403357322089 0  0.3136817403988916 0.9495281805930367 0  0.3368898533922201 0.9415440651830208 0  0.3598950365349883 0.9329927988347388 0  0.3826834323650898 0.9238795325112867 0  0.4052413140049899 0.9142097557035307 0  0.4275550934302822 0.9039892931234433 0  0.4496113296546066 0.8932243011955153 0  0.4713967368259978 0.8819212643483549 0  0.4928981922297841 0.8700869911087113 0  0.5141027441932217 0.8577286100002721 0  0.5349976198870973 0.844853565249707 0  0.5555702330196023 0.8314696123025452 0  0.5758081914178453 0.8175848131515837 0  0.5956993044924335 0.8032075314806448 0  0.6152315905806268 0.7883464276266062 0  0.6343932841636455 0.773010453362737 0  0.6531728429537768 0.7572088465064845 0  0.6715589548470183 0.7409511253549591 0  0.6895405447370669 0.7242470829514669 0  0.7071067811865476 0.7071067811865475 0  0.724247082951467 0.6895405447370668 0  0.7409511253549591 0.6715589548470183 0  0.7572088465064846 0.6531728429537768 0  0.773010453362737 0.6343932841636455 0  0.7883464276266063 0.6152315905806268 0  0.8032075314806449 0.5956993044924334 0  0.8175848131515837 0.5758081914178453 0  0.8314696123025452 0.5555702330196022 0  0.8448535652497071 0.5349976198870972 0  0.8577286100002721 0.5141027441932217 0  0.8700869911087115 0.492898192229784 0  0.881921264348355 0.4713967368259976 0  0.8932243011955153 0.4496113296546065 0  0.9039892931234433 0.4275550934302821 0  0.9142097557035307 0.4052413140049899 0  0.9238795325112867 0.3826834323650898 0  0.932992798834739 0.3598950365349881 0  0.9415440651830208 0.3368898533922201 0  0.9495281805930367 0.3136817403988915 0  0.9569403357322088 0.2902846772544623 0  0.9637760657954398 0.2667127574748984 0  0.970031253194544 0.2429801799032639 0  0.9757021300385286 0.2191012401568698 0  0.9807852804032304 0.1950903220161282 0  0.9852776423889412 0.1709618887603012 0  0.989176509964781 0.1467304744553617 0  0.99247953459871 0.1224106751992162 0  0.9951847266721969 0.0980171403295606 0  0.9972904566786902 0.07356456359966743 0  0.9987954562051724 0.04906767432741801 0  0.9996988186962042 0.02454122852291229 0  1 0 0  20 0 0  20 2.5 0  0 2.5 0  -10 2.5 0  10 2.5 0  -10.5 0 0  -5 2.5 0  10.5 0 0  5 2.5 0  -5.75 0 0  5.75 0 0  -15.25 0 0  -15 2.5 0  15.25 0 0  15 2.5 0  -17.625 0 0  -17.5 2.5 0  17.5 2.5 0  17.625 0 0  12.5 2.5 0  12.875 0 0  -12.5 2.5 0  -12.875 0 0  -2.5 2.5 0  2.5 2.5 0  -8.125 0 0  -7.5 2.5 0  8.125 0 0  7.5 2.5 0  -3.375 0 0  3.375 0 0  -18.75 2.5 0  20 1.25 0  16.4375 1.19375 0  -16.25 2.5 0  13.75 2.5 0  -14.0625 0 0  -11.6875 0 0  11.6875 0 0  8.75 2.5 0  -8.75 2.5 0  6.9375 0 0  6.25 2.5 0  -6.25 2.5 0  -9.3125 0 0  -6.9375 0 0  9.3125 0 0  11.25 2.5 0  -11.25 2.5 0  3.75 2.5 0  4.5625 0 0  -4.5625 0 0  -3.75 2.5 0  -13.75 2.5 0  14.0625 0 0  -16.4375 0 0  -20 1.25 0  -18.8125 0 0  18.75 2.5 0  -18.21875 1.2359375 0  18.125 1.278125 0  -15.84375 1.2125 0  -14.375 1.30859375 0  14.65625 1.203125 0  2.1875 0 0  -2.1875 0 0  13.125 1.315625 0  3.125 1.315625 0  -3.125 1.315625 0  -12.28125 1.1890625 0  -5.15625 1.184375 0  11.09375 1.184375 0  5.625 1.325 0  -10.97262068800044 1.220713793599868 0  9.375 1.32734375 0  -6.875 1.32734375 0  -9.67626828410207 1.24449497187193 0  8.061334925608099 1.312208731402025 0  -8.188665074391901 1.312208731402025 0  -1.25 2.5 0  1.25 2.5 0  4.37465139623265 1.41327350462657 0  16.25 2.5 0  6.84375467392576 1.430449641528851 0  -1.846573640185365 1.334702047669377 0  1.846573640185365 1.334702047669377 0  -17.02955351149946 1.396129584721571 0  16.4375 0 0  18.8125 0 0  -13.31314667860176 1.511193493282891 0  -4.122005747945582 0.961844908681634 0  12.12799425205442 0.961844908681634 0  15.54930641305724 1.660405980876393 0  19.0578783583929 0.9559530595267438 0  8.71875 0.6864560603786576 0  -7.53125 0.6864560603786576 0  -0.6257799091428727 1.819008129832856 0  0.6257799091428734 1.819008129832855 0  6.291331569065717 0.7194652423646902 0  -19.11204717950418 0.9044926794710327 0  -4.488713231834613 1.772186102355655 0  11.76128676816539 1.772186102355655 0  -19.28185607205105 1.781856072051052 0  19.30868080343342 1.808680803433421 0  9.90625 0.6371857066656857 0  -6.34375 0.6371857066656857 0  3.796921710049233 0.7617406159238448 0  7.392020585015773 0.7480839107774819 0  -8.910372062800235 0.7929553447587234 0  10.2506781820361 1.451853913138859 0  -5.999321817963904 1.451853913138859 0  4.957643119381741 0.7716423099297361 0  17.29984375 0.8640625 0  15.41193625859067 0.8279888354083842 0  -13.72251704931534 0.7728002662082776 0  16.875 2.5 0  17.12178336313261 1.690954734835967 0  -11.64001625260176 1.74572103154608 0  2.477726735235857 0.7850262278604345 0  13.46875 0 0  13.765625 0.7802887470308788 0  -2.78125 0 0  -2.477726735235857 0.7850262278604346 0  -10.33383379274331 1.744431431923121 0  13.91957519050334 1.653419259628842 0  -15.08147780274903 0.8341506893754731 0  -15.14066649024666 1.671962869821843 0  -8.950686484882164 1.678622661163363 0  -17.55392917606836 0.794731598412167 0  -16.80247533599675 0.6688259240674158 0  -12.94289066923278 0.7766744225472476 0  -9.90625 0 0  -10.31601468672093 0.7730817089126454 0  -18.21875 0 0  -12.28125 0 0  -17.68515668569534 1.768907656575843 0  18.21875 0 0  10.85059123027421 1.880344717307101 0  -5.399408769725794 1.880344717307101 0  -3.738137326223278 1.749164834446819 0  -3.125 2.5 0  12.46235897590077 1.601301060091387 0  -11.09375 0 0  -11.61661448001209 0.7781698802173554 0  -15.625 2.5 0  -1.764022608759088 0.6027229563180789 0  1.59375 0 0  -8.125 2.5 0  8.125 2.5 0  8.713468311289519 1.727645658498745 0  9.375 2.5 0  -7.536531688710481 1.727645658498745 0  -6.875 2.5 0  14.375 2.5 0  17.78381794101733 1.874391370085592 0  18.59891476281433 1.80649740393129 0  -18.58835555265984 1.824268641341969 0  1.806126122135773 0.6510673837470153 0  -16.875 2.5 0  -16.36681393636619 1.755298393865037 0  -16.13072438662071 0.6014017614895231 0  -13.92460230791385 1.83195710210235 0  -14.40198779087891 0.6105385965811564 0  20 0.625 0  19.40625 0 0  14.6875 1.888836596385542 0  14.65625 0 0  12.78248197181444 0.6991460920542635 0  -3.467518028185561 0.6991460920542635 0  13.125 2.5 0  2.491957142932539 1.738660596534321 0  3.125 2.5 0  1.875 2.5 0  3.718973573227002 1.75927763286174 0  -2.491957142932539 1.738660596534321 0  -1.875 2.5 0  -9.375 2.5 0  6.2001972846108 1.772767401802766 0  5.625 2.5 0  5.027483518098582 1.760895488350309 0  5.625981449127788 0.6566963631252629 0  -12.30101114679273 1.859484693920165 0  9.742489932362783 1.884363450023167 0  -6.507510067637216 1.884363450023166 0  1.13492303295015 1.283502262067074
[...]
<PointData  Scalars="f_18934853"> 
<DataArray  type="Float64"  Name="f_18934853"  format="ascii">1.1689930829636987e+01  1.1502269027045392e+01  1.3350051291443844e+01  1.3321329962819119e+01  1.3305729289421821e+01  1.3322364181676965e+01  1.3311523967140406e+01  1.3295555812389447e+01  1.3308095720650154e+01  1.3291027717210621e+01  1.3156566206687272e+01  1.3285939706751851e+01  1.3288215675343617e+01  1.3256708661942037e+01  1.3222061606362677e+01  1.3211431527009646e+01  1.3193828243704679e+01  1.3188096650193119e+01  1.3127720382355895e+01  1.3145587617951803e+01  1.3075573472230918e+01  1.3047761135634488e+01  1.3037978687987319e+01  1.2950623412191222e+01  1.2921026336336658e+01  1.2908731892229213e+01  1.2833106524287842e+01  1.2722610272246417e+01  1.2677237896351619e+01  1.2549683687301831e+01  1.2506793833835408e+01  1.2457097014152476e+01  1.2333066830538822e+01  1.2239854507462740e+01  1.2142402504797476e+01  1.2038659800720493e+01  1.1895134274926917e+01  1.1755662472034439e+01  1.1611996246267898e+01  1.1538024156607971e+01  1.1469978208645383e+01  1.1314462741038403e+01  1.1086726944404099e+01  1.0989509979412819e+01  1.0829167180164198e+01  1.0637474725383987e+01  1.0991094997965083e+01  1.0329719866919488e+01  1.0099285383419414e+01  9.8206582985726421e+00  9.7126419650834617e+00  9.4956540013864377e+00  9.3452072023869537e+00  9.0422569804890927e+00  8.8299930347610704e+00  8.4638505749517066e+00  8.3098811978829659e+00  8.1269279495931688e+00  7.7983155422804051e+00  7.6172931171406617e+00  7.4239561446441495e+00  7.0711354751804025e+00  6.8412978551257853e+00  6.5206467576789615e+00  6.2958893001198559e+00  6.0481755395148014e+00  5.8332279992850715e+00  5.4950969973585169e+00  5.2711359433030909e+00  4.9890063645817317e+00  4.6721569530794893e+00  4.4889083376170529e+00  4.1825849390088630e+00  3.9805850617075080e+00  3.6609122060120658e+00  3.4598466930246747e+00  3.2078377995220828e+00  3.0322357403210862e+00  2.6860286438549918e+00  2.5170208286504550e+00  2.3029830781818417e+00  2.1524981393538249e+00  1.8641250100700375e+00  1.7089317605947962e+00  1.4831892300211986e+00  1.2448963458942266e+00  9.7915567902277234e-01  9.6628484600903441e-01  6.9410583395570502e-01  5.1552719061836993e-01  3.6528125992260657e-01  2.9640606740327191e-01  1.4200335590124519e-01  2.9482190197952705e-02  -1.5142817439668874e-01  -2.5412951936173311e-01  -4.0664151608458282e-01  -5.3181139978169423e-01  -5.6112253962096781e-01  -6.7686445663876604e-01  -8.3409351134539922e-01  -8.5994169410692478e-01  -9.4187462724680293e-01  -1.0080128762190026e+00  -1.0637673135785701e+00  -1.1175103470321386e+00  -1.2337657758393368e+00  -1.2531807317853392e+00  -1.3508746434003707e+00  -1.3924562395378792e+00  -1.4383504310356914e+00  -1.5206070820802700e+00  -1.5467503912226772e+00  -1.5894424274680363e+00  -1.5854464635365966e+00  -1.6913219231286574e+00  -1.6319275939009827e+00  -1.6798784337627488e+00  -1.6938270472323531e+00  -1.6916643935546234e+00  -1.7364063615482728e+00  -1.7486916884710895e+00  -1.7633672712908359e+00  -1.7796258628114188e+00  -1.7710001303599470e+00  -1.7830237494022065e+00  -1.7833975307059908e+00  -1.7912764253499727e+00  -1.7945095009834573e+00  -1.8023545911397183e+00  -1.8293386066539989e+00  0.0000000000000000e+00  0.0000000000000000e+00  5.7389669585520968e+00  1.1494693395408277e+01  -3.0990290543430124e-03  1.1495114322427876e+01  1.1500050344916376e+01  -3.0384871825060414e-03  -7.3765334864238814e-03  1.1490228692476188e+01  -4.7935453769640309e-03  1.1497139353936499e+01  1.1496991293312899e+01  -1.1580520163128999e-03  -1.1728815613874827e-03  1.1495546485395183e+01  1.1499261466718629e+01  -6.2143727573278553e-04  -6.3070452429596065e-04  -1.9635661132422918e-03  -1.9468216592327724e-03  1.1496142644654169e+01  1.1496372237692364e+01  1.1393476379802452e+01  4.1552123963886828e-02  1.1492885749121974e+01  1.1492928428829890e+01  -4.1834981858064179e-03  -4.0382386585773649e-03  1.1534366165366350e+01  -3.9657009797739395e-02  1.1529036934564905e+01  0.0000000000000000e+00  -8.5513047923388376e-04  1.1497278412640227e+01  -1.5381159998457650e-03  1.1496814666289577e+01  1.1495839305047497e+01  -2.4857604914259083e-03  -3.5752936778849446e-03  1.1493786609519264e+01  -4.6971537762350423e-03  -4.7095333971486041e-03  1.1493230462018921e+01  1.1494150810951052e+01  1.1491390951937463e+01  -3.5893569970712269e-03  -2.4724226069615723e-03  1.1495566252530837e+01  -2.8566778008508125e-04  -9.4919865600375450e-03  1.1498586128297438e+01  1.1500137211072033e+01  1.1496633727295643e+01  -1.4958388100338878e-03  1.1497175866505843e+01  1.1523669262981345e+01  1.1487635998219679e+01  -2.8785331385151473e-04  1.1500081270873737e+01  -4.4500073082989972e-04  1.1497461586356092e+01  1.1496912686559337e+01  -1.2669520638625533e-03  -3.3732353551648564e-01  1.1831132861641089e+01  -1.7690622826059817e-03  1.2744658483460952e-01  1.1381012139584724e+01  1.1496117152793801e+01  1.1485020297577835e+01  -2.6884957441961127e-03  -1.1997724723929971e-03  1.1495431130463423e+01  -3.4505495747787483e-03  1.1491490739253427e+01  1.1494518600270856e+01  -3.9826950211748193e-03  1.1493096974124894e+01  1.0461045929313789e+01  1.0256093645849977e+00  1.5806936273694096e-02  -8.9999093076172294e-04  -3.9677635232612026e-03  1.0837326226544766e+01  6.4664391010296596e-01  1.1498719241582936e+01  -8.8508421475539517e-04  -3.6699758933718076e-04  1.1496531366350196e+01  1.1473319576658856e+01  -2.2241908013644275e-03  -1.0369885016346847e-03  -2.3650144582073571e-04  -3.8459627057697283e-03  1.1492229282372902e+01  8.1196485978956190e+00  3.3966871157269116e+00  -4.0910930677906061e-03  1.1492364583955688e+01  1.1476880875497452e+01  -2.2998102017161995e-03  1.1524061157947621e+01  -1.2143421557235812e-04  -3.2840310572147895e-03  1.1490716407295126e+01  1.6830096009347862e-02  -4.3178203234016102e-03  1.1493805051182800e+01  -3.0563455434743010e-03  1.1489779553869857e+01  -2.6250859953179205e-04  -6.7247840279608079e-04  -1.0983650957132659e-03  1.1496696267965973e+01  -7.6128503654703786e-04  -6.8151686327679452e-04  1.1495782985646896e+01  1.2148756437411865e-01  -1.7140154810433550e-03  -1.5728646846384679e-03  1.1632395123548429e+01  1.1392841597301848e+01  1.1495003128618940e+01  -1.4733808598393946e-03  1.1497160557747810e+01  1.1497164615710993e+01  1.1493899204229624e+01  1.1497245683711487e+01  1.1497361444199960e+01  1.1496405170855912e+01  1.1494669548268437e+01  1.1494994938671415e+01  1.1492906709444814e+01  1.1496120833521005e+01  1.1501966933481938e+01  -5.1342119877978323e-04  -2.7291719843008386e-03  1.1488290832802438e+01  1.1444225770208234e+01  1.1490350612717803e+01  -2.0105928123249628e-03  1.1495499715399498e+01  1.1495799462289430e+01  1.1497090313210174e+01  1.1511946421661534e+01  -7.4540970549783891e-01  1.1493265647980618e+01  -3.8103509274017996e-03  -3.6642340620730175e-03  -3.3637334573295434e-03  1.1492508327084670e+01  1.1493048506296105e+01  -1.3419433426106958e-03  -4.9991932526927986e-04  -2.9102420224474772e-04  1.1513500379355184e+01  8.6655081255688785e-02  1.1497628708406857e+01  1.1497902717028776e+01  1.1497332763073151e+01  1.1496731783864595e+01  1.1496937378941480e+01  0.0000000000000000e+00  -2.1097216160313604e-04  -1.2466432998807164e-03  -1.3038872494779753e-03  -1.9594411419753019e-03  1.1485180145712183e+01  -1.7417093209191490e-03  3.3968424496214356e-01  1.3534856207490656e-02  3.1541750139717456e-01  5.4254498869778234e-02  1.1166172454031541e+01  1.1103528398192918e+01  1.1494219753061710e+01  -3.3453432003777250e-03  -5.7021013354185395e-03  2.8546323067864224e-03  -3.2836449639838247e-03  1.1496091427188587e+01  -3.2423071489340719e-03  1.1491592677686585e+01  1.4680383706736384e+00  1.0003994061172428e+01  -2.5379009935759685e-03  1.1486842365936980e+01  -2.9706877713490381e-03  1.1489989082359143e+01  -8.9194718082341530e-04  6.9263894728403682e-03  -1.0219290449102211e-03  -9.4562541701315921e-04  1.1493012224571626e+01  -4.1440482961451986e-03  -3.9534267449533068e-03  1.0360620642593489e+01  1.1267125696666533e+00  1.1495412841434074e+01  -2.2091383854456713e-03  1.1502660745061249e+01  1.1494500840450179e+01  1.1494376868480815e+01  -5.5254742656582478e-04  1.1505968904862476e+01  1.1496415565526252e+01  1.1493329447294670e+01  1.1483565763436831e+01  1.1507625244478652e+01  1.1496825115761192e+01  -4.2541692541488308e-03  -8.8466605950836535e-03  5.7697984234667388e+00  1.1495148827194933e+01  -4.3594644034520918e-04  1.1495831901231025e+01  1.1596955267665669e+01  -2.2008662501227026e-03  1.1499110554390427e+01  2.9727770439724170e+00  8.5714468541937165e+00  -1.0250425092649725e-03  1.1551678245276303e+01  0.0000000000000000e+00  -1.3097860579486858e-04  -2.8071117580279548e-03  1.1494639448692077e+01  1.1497390241572997e+01  1.1495464367559297e+01  -8.0911018623906013e-04  1.1491074350824357e+01  -2.7725949968161667e-03  -1.2474430428206793e-03  1.1496938177196249e+01  1.1493381387208565e+01  -3.8328999800891833e-03  1.1496161068116065e+01  1.1491453737476091e+01  -3.5626577784753973e-03  1.2304730784333980e+01  1.1497016590332619e+01  1.1496603410883838e+01  -4.5895332714384601e-03  1.1493554680096693e+01  -4.4341042081842454e-03  -1.3539690225588165e-02  1.1490864503398068e+01  -3.3063606200526897e-03  -4.5300786917346729e-03  1.1492158556836381e+01  -3.8934747603759381e-03  1.1496820574929524e+01  1.1497272489002560e+01  -1.1810826524060287e-01  -7.4903790654952331e-04  9.9095640584202560e-02  -1.7920662299788508e-03  1.1392902377294906e+01  -2.6763694821302698e-03  1.1497736357909965e+01  -4.0141283150539023e-04  -7.2382552003355885e-04  1.1497268283484825e+01  1.1498549287148569e+01  -4.4924661104741841e-03  -9.7947020689863307e-04  9.1895376071302829e-03  -5.8557924663419280e-04  1.1496342022215316e+01  1.1496716646035273e+01  -1.3851950598131309e-03  1.1491513939444848e+01  -2.9833913473011316e-03  1.1496340037774045e+01  -3.9871933266818682e-03  1.1501631699577816e+01  1.1480689629214835e+01  -2.4278559199082234e-03  1.1430821497723889e+01  -3.5433281622063309e-03  1.1496544878206651e+01  1.1492479566650559e+01  -3.8071049856606234e-03  1.1492108542921459e+01  -3.4474772736589059e-03  -2.0976581269012049e-03  1.1495256440316439e+01  -4.1001459236120613e-03  -1.8554973586729534e-04  1.1496068269354403e+01  -2.3287124983391123e-03  -1.0922097833416136e-03  -1.1331099711571811e-03  3.9218629822827672e-02  1.1514791875381940e+01  2.4826252584576134e-03  -3.6277919353059891e-04  -1.0413061349224861e-04  -1.7524107217156725e-03  1.1476632255684832e+01  1.1499539163802366e+01  1.1087125328240136e+01  5.4666098603273527e-01  1.1495106842588831e+01  1.1493001326710061e+01  1.1495875211464064e+01  -2.4044756278963247e-04  -1.6384251396673591e-03  -1.5981864773863424e-03  -1.3774920970852560e-03  1.1497157492764588e+01  -1.4372253693844654e-03  2.3973749499951966e-01  -2.0067427836525323e-03  2.3763226585002620e-01  1.1145814015032016e+01  1.1487753173932903e+01  1.1491643939242628e+01  1.1482718941552161e+01  1.1496643110768499e+01  -8.0800170336909087e-04  1.1229055749778931e+01  9.4096771280345131e+00  2.0975209804121411e+00  7.2930168625640013e+00  4.2933615789648325e+00  1.1496489780068249e+01  1.1497068004692350e+01  -1.0516185054124973e-03  1.1960699584948513e-02  -7.9423546784345366e-04  1.1494135103866943e+01  -7.4067624584034093e-04  -6.5561466202061942e-04  -1.8384307043950410e-03  -2.7724198306903289e-03  1.1489987471764470e+01  1.1491880778542441e+01  -3.6298514931118807e-03  1.1486292354202643e+01  -2.4757549300735201e-03  -1.3341107896958011e-03  -4.0234424903785246e-03  1.1492582076623044e+01  1.1503029249433693e+01  -4.1004580335609669e-03  1.1495986619941766e+01  1.1507318963248846e+01  -4.3446337508035275e-03  -3.0165165956452687e-03  1.1495680886758944e+01  1.1543065936363925e+01  -6.2563424623233305e-04  1.1369698368459128e+01  -2.5120773909675341e-03  1.1481792673076683e+01  -2.2186732337744841e-03  1.1465906388973821e+01  1.1493399477038242e+01  1.1493880248342043e+01  1.1494192642597588e+01  -1.8831248385137172e-04  -9.5243917976876305e-04  1.1493798184715869e+01  7.1103508025811104e+00  4.4736934448804444e+00  -3.0630632791775963e-04  -2.9161666598937733e-03  -3.1298771915612938e-03  1.1489722410348755e+01  1.1490677789139355e+01  1.1488313178942882e+01  -3.2497161499622290e-03  1.1573201645026279e+01  1.1666014667629012e+01  -6.3156077991796347e-05  1.1493424640203379e+01  -5.9671564790812334e-03  -3.9168282527044206e-03  1.1206287116001089e+01  -3.2620654240199665e-02  -4.5343447717908665e-03  -4.1879476294319710e-03  1.1494730040688635e+01  -3.4029662179162700e-03  -3.1315069436928028e-03  1.1490545524574790e+01  6.0590150061201206e-02  -1.7458736755428802e-02  1.1520839280920365e+01  8.1016491067757868e-03  -2.8076518115439002e-03  -1.5404355781310564e-03  1.2001763424845777e+01  1.1496358637039320e+01  -2.1266405008023561e-03  1.1506727742626753e+01  1.0893905433681722e+01  -9.4996419163067709e-05  1.1497787571619163e+01  -1.3871968144739224e-03  -3.6709638397702240e-03  1.1497294615299378e+01  1.1497015276188183e+01  1.1497057228310171e+01  1.1495626984957989e+01  1.1495589253186489e+01  -7.3067379069885321e-02  1.1493517092539854e+01  1.1493808686677085e+01  1.1494190560915236e+01  2.3367546780966988e+00  -3.4427438010341156e-03  1.1491131669053331e+01  1.1496834634844136e+01  1.1496713745912349e+01  1.1496554367288930e+01  -1.1575834323223368e-03  1.1497455603247923e+01  -4.3500026138716761e-03  1.1630874830563922e+01  -1.3258484472959475e-01  1.1491893259794633e+01  -3.7606694739565675e-03  -3.3632007036751800e-04  -4.1298502355598858e-04  1.1497328342321486e+01  1.1494659599654844e+01  1.1380669462449625e+01  3.1000718100094288e-01  -2.1147901946618635e-03  -1.6724267850942946e-03  8.9065845757886688e+00  1.1450590160156001e+01  2.0048888667224035e-01  1.1494953727034840e+01  1.1494724562094417e+01  1.1490990555041707e+01  1.1647318614135639e+01  1.1561822215429826e+01  -3.5368500239269483e-03  1.1492574609329948e+01  1.1496934438713970e+01  1.1500138487818647e+01  -1.1433665078258834e-03  -5.7580545789434427e-04  -3.6168214833447458e-03  -1.9372776166729983e-03  1.1495262905841628e+01  -7.1774466609824002e-04  1.1497033492698774e+01  -5.2626863555612835e-01  -1.5264856434650826e-03  -3.6374031906968658e-03  1.1495671048636378e+01  1.0947295317565223e-01  1.1492926513037119e+01  1.1495197419408502e+01  1.1496802956920362e+01  -2.6281815102419527e-03  1.1491024771821746e+01  1.7091938655396998e-02  1.1509178483593661e+01  -3.9370199952307302e-03  1.1498026831701567e+01  1.1498485840098523e+01  -9.5341442252436877e-04  1.1495974046231984e+01  1.1495255165997918e+01  4.2672502068414095e-02  1.1495900146777577e+01  2.2900294018760852e-02  -4.1685571091630057e-03  -3.6908349911404319e-03  7.7167166314231261e-01  1.2116106254642298e+00  1.1482867735478406e+01  1.1289439005549108e+01  4.4066920960965811e-01  -1.2415668769865582e-03  0.0000000000000000e+00  -4.1227569210840555e-05  -3.7056997631239783e-03  1.1495983180489237e+01  1.1496322375674696e+01  1.1496262092883589e+01  -4.7029284989515401e-04  1.1497205247481755e+01  -4.1935943283383004e-04  -1.1981507083653582e-03  -3.9061020322736831e-03  1.1492045408049817e+01  -3.8223488328046292e-03  1.1503481962177439e+01  1.1487882546460286e+01  1.0704634631628686e+01  1.0244870979343803e+01  -4.1285342496018068e-03  1.1497007521043974e+01  1.1497297163643815e+01  1.1497344080905608e+01  1.1497944051329704e+01  -3.9659355702070477e-03  1.1492655455424154e+01  1.9309010376707153e-01  8.4895478293732576e-03  -4.6680803385875528e-03  -4.7260046703132544e-03  1.1496195839116844e+01  -1.8653437634021286e-01  -2.7737135589493709e-03  1.1499956881016685e+01  1.1497657998306392e+01  1.1498214231930774e+01  2.2428126389540419e+00  -1.0557123846585000e-03  1.1414128403255511e+01  -4.2133999416740474e-03  -9.7842382251978575e-04  -3.7306562129286037e-03  -7.2335820189016117e-04  1.1493077340493937e+01  -2.9021239744941641e-03  1.1502412542532328e+01  7.2778540907596279e-02  2.2891673190103930e-04  1.1497019919773367e+01  -3.2975130258359336e-04  -2.9014664047112967e-03  1.1495531533560404e+01  -2.6373601641776026e-03  1.1489268734688606e+01  -1.6724907005163212e-03  -2.3071414145282186e-03  1.1486215720461935e+01  1.1289197168217919e+01  1.1495184400754063e+01  -8.6113671056846266e-04  9.3224065607580133e+00  -4.0177829509131973e-03  -4.0134466255449400e-03  -2.6152063019264466e-03  1.1463134251129935e+01  1.0656286598890850e+01  7.5734162054188248e-01  -6.4956714451610553e-02  8.1529166126869801e-01  -1.8648248196605276e-03  -1.2293085176150673e-03  1.1496020353193023e+01  -2.9286093558495273e-03  1.1490266009901136e+01  1.1492753799846566e+01  1.1492238110308699e+01  -3.2289705845188442e-03  -3.3334199380165431e-03  1.1494420928563498e+01  1.1494827330175754e+01  1.1497180429667715e+01  -5.2416608871690682e-04  -3.1893041045290841e-04  -4.2938045193899694e-03  1.1495354093228141e+01  -2.0162871722534726e-04  1.1509236347018387e+01  1.1497054857683516e+01  -7.5613042971538051e-04  -2.0954926906288909e-03  1.1520290520008444e+01  1.1424473994368959e+01  -1.8759279858253371e-03  1.1497401344118517e+01  -3.9494033081388519e-03  1.1494964479793857e+01  1.1496912957239910e+01  1.1496840849434820e+01  -2.8023003591259462e-03  1.1487909045395440e+01  1.1493516893663495e+01  -5.9011565553414096e-04  1.1504534898734475e+01  1.1520888739909861e+01  1.1496894310211616e+01  1.1496566136817801e+01  1.1490254881172666e+01  1.1496805444349203e+01  1.1496663013797242e+01  1.1496617475079516e+01  -2.1527607241285493e-03  -5.9550564244839589e-04  -1.2265157342266234e-03  -1.2952807749057782e-03  -1.1817149358548705e-03  1.2097278984970069e+01  -3.2898098779632917e-01  -1.9802896757698781e-03  1.1496278352179500e+01  1.1496194183666223e+01  -4.9933168000102467e-04  -4.3765372512218152e-04  1.1494772022273876e+01  3.2522203054301153e+00  1.9699442911092209e+00  8.3632513596387543e+00  1.1497297913152160e+01  -2.5842166342915796e-03  1.1486848565552148e+01  -2.3751013442975901e-03  1.1482741740278275e+01  -2.4854719476750170e-03  1.1493503160466828e+01  1.1492214597294783e+01  1.1492950564028444e+01  -9.6807225820497449e-04  1.1497546545118460e+01  1.1497219357395673e+01  9.2023348543807636e-03  -3.6210194987486691e-02  -8.7782519583243029e-04  -1.0231227272088823e-03  -1.1993915892682280e-04  1.2119911879567794e-02  -4.0327391370992777e-03  1.1494359067305812e+01  -3.1333800279628185e-03  1.1490675771128783e+01  1.1491523360063923e+01  -3.1704009453132811e-03  1.1492192336208463e+01  -3.3526696212508910e-03  -8.8679086671159544e-04  -9.5454364904047151e-04  -9.8640487705715344e-04  1.1494445299168149e+01  1.1497285548769826e+01  1.1494005530147122e+01  -6.9221019357061577e-04  -1.4268958360364554e-03  -3.9254300824948579e-03  1.1496968428313622e+01  9.5603572801552925e+00  1.1492547722940746e+01  -2.8150533750164373e-03  1.1497529067700158e+01  1.1492963466232137e+01  -4.1689632986798772e-03  -1.8564323387472348e-03  1.1522831256118875e+01  1.1504093232711975e+01  1.0784382701908317e+01  1.3296837968295139e+00  1.0165528206063138e+01  7.1563338847909919e-01  -6.9030826408987924e-04  1.1495706411913266e+01  -2.5597003044039858e-04  1.1496044474412457e+01  1.1494197142550437e+01  1.1494092252137795e+01  6.8460516840443228e-02  1.1495395741566520e+01  1.1484184488720878e+01  -9.1775937877776716e-04  -3.3458455427258348e-03  1.1496401602513567e+01  1.1482765153644420e+01  1.1503354999919397e+01  1.1496472237202372e+01  2.8530255859690884e-01  -6.6464927557149185e-04  1.6728779385172219e+00  1.0574648446669919e+01  1.1493057825484453e+01  -3.2759865087455338e-03  1.1490681002036320e+01  -2.6330283595573495e-03  1.1492941175302120e+01  1.1494210272500929e+01  1.1572770636336687e+01  1.1498817907793070e+01  1.1493347609155268e+01  -1.0195714072656942e-03  -1.0896511003978258e-03  -5.0535510879044635e-04  4.5