<?xml version="1.0"?>
<VTKFile type="UnstructuredGrid"  version="0.1"  >
<UnstructuredGrid>
<Piece  NumberOfPoints="3915" NumberOfCells="6507">
<Points>
<DataArray  type="Float64"  NumberOfComponents="3"  format="ascii">1.25 0 0  1.249623523370255 0.03067653565364036 0  1.248494320256466 0.06133459290927252 0  1.246613070848363 0.09195570449958429 0  1.243980908340246 0.1225214254119508 0  1.240599418248387 0.1530133439990203 0  1.236470637455976 0.1834130930692022 0  1.231597052986177 0.2137023609503765 0  1.225981600504038 0.2438629025201603 0  1.219627662548161 0.2738765501960873 0  1.21253906649318 0.3037252248790798 0  1.2047200822443 0.333390946843623 0  1.196175419665261 0.3628558465680779 0  1.186910225741296 0.3921021754986144 0  1.176930081478776 0.4211123167402751 0  1.166240998543424 0.4498687956687352 0  1.154849415639108 0.4783542904563622 0  1.142762194629413 0.5065516425062373 0  1.129986616404304 0.5344438667878526 0  1.116530376494394 0.5620141620682582 0  1.102401580435444 0.5892459210324971 0  1.087608738885889 0.61612274028723 0  1.07216076250034 0.642628430241527 0  1.056066956562134 0.6687470248588714 0  1.039337015378182 0.6944627912745027 0  1.02198101643948 0.7197602392723067 0  1.004009414350806 0.7446241306155417 0  0.9854330345332579 0.7690394882257835 0  0.9662630667034212 0.7929916052045569 0  0.9465110581331058 0.8164660536922209 0  0.9261889066936989 0.8394486935587729 0  0.9053088536893338 0.8619256809213336 0  0.8838834764831844 0.8838834764831843 0  0.8619256809213337 0.9053088536893337 0  0.8394486935587729 0.9261889066936989 0  0.8164660536922209 0.9465110581331055 0  0.7929916052045569 0.9662630667034212 0  0.7690394882257835 0.9854330345332578 0  0.7446241306155419 1.004009414350806 0  0.7197602392723067 1.02198101643948 0  0.6944627912745028 1.039337015378182 0  0.6687470248588716 1.056066956562134 0  0.642628430241527 1.07216076250034 0  0.6161227402872301 1.087608738885889 0  0.5892459210324973 1.102401580435444 0  0.5620141620682583 1.116530376494394 0  0.5344438667878527 1.129986616404304 0  0.5065516425062373 1.142762194629413 0  0.4783542904563623 1.154849415639108 0  0.4498687956687353 1.166240998543424 0  0.4211123167402751 1.176930081478776 0  0.3921021754986145 1.186910225741296 0  0.3628558465680779 1.196175419665261 0  0.333390946843623 1.2047200822443 0  0.30372522487908 1.21253906649318 0  0.2738765501960872 1.219627662548161 0  0.2438629025201604 1.225981600504038 0  0.2137023609503767 1.231597052986177 0  0.1834130930692022 1.236470637455976 0  0.1530133439990203 1.240599418248387 0  0.122521425411951 1.243980908340246 0  0.09195570449958432 1.246613070848363 0  0.06133459290927266 1.248494320256466 0  0.03067653565364033 1.249623523370255 0  7.654042494670958e-17 1.25 0  -0.03067653565364018 1.249623523370255 0  -0.06133459290927251 1.248494320256466 0  -0.09195570449958416 1.246613070848363 0  -0.1225214254119508 1.243980908340246 0  -0.1530133439990202 1.240599418248387 0  -0.1834130930692021 1.236470637455976 0  -0.2137023609503766 1.231597052986177 0  -0.2438629025201602 1.225981600504038 0  -0.2738765501960871 1.219627662548161 0  -0.3037252248790798 1.21253906649318 0  -0.3333909468436229 1.2047200822443 0  -0.3628558465680777 1.196175419665261 0  -0.3921021754986143 1.186910225741296 0  -0.4211123167402749 1.176930081478776 0  -0.4498687956687352 1.166240998543424 0  -0.4783542904563621 1.154849415639108 0  -0.5065516425062372 1.142762194629413 0  -0.5344438667878524 1.129986616404304 0  -0.5620141620682584 1.116530376494394 0  -0.5892459210324972 1.102401580435444 0  -0.61612274028723 1.087608738885889 0  -0.642628430241527 1.07216076250034 0  -0.6687470248588713 1.056066956562134 0  -0.6944627912745025 1.039337015378182 0  -0.7197602392723067 1.02198101643948 0  -0.7446241306155417 1.004009414350806 0  -0.7690394882257834 0.9854330345332579 0  -0.7929916052045567 0.9662630667034213 0  -0.8164660536922207 0.9465110581331059 0  -0.8394486935587731 0.9261889066936988 0  -0.8619256809213337 0.9053088536893337 0  -0.8838834764831843 0.8838834764831844 0  -0.9053088536893334 0.8619256809213338 0  -0.9261889066936986 0.8394486935587732 0  -0.9465110581331058 0.8164660536922208 0  -0.9662630667034212 0.7929916052045569 0  -0.9854330345332578 0.7690394882257836 0  -1.004009414350806 0.7446241306155419 0  -1.02198101643948 0.7197602392723068 0  -1.039337015378182 0.6944627912745027 0  -1.056066956562134 0.6687470248588714 0  -1.07216076250034 0.6426284302415273 0  -1.087608738885889 0.6161227402872302 0  -1.102401580435444 0.5892459210324973 0  -1.116530376494394 0.5620141620682586 0  -1.129986616404304 0.5344438667878525 0  -1.142762194629413 0.5065516425062374 0  -1.154849415639108 0.4783542904563624 0  -1.166240998543424 0.4498687956687354 0  -1.176930081478776 0.4211123167402754 0  -1.186910225741296 0.3921021754986143 0  -1.196175419665261 0.362855846568078 0  -1.2047200822443 0.3333909468436231 0  -1.21253906649318 0.3037252248790801 0  -1.219627662548161 0.2738765501960876 0  -1.225981600504038 0.2438629025201608 0  -1.231597052986177 0.2137023609503765 0  -1.236470637455976 0.1834130930692023 0  -1.240599418248387 0.1530133439990204 0  -1.243980908340246 0.122521425411951 0  -1.246613070848363 0.09195570449958466 0  -1.248494320256466 0.06133459290927246 0  -1.249623523370255 0.03067653565364041 0  -1.25 1.530808498934192e-16 0  -1.249623523370255 -0.0306765356536401 0  -1.248494320256466 -0.06133459290927215 0  -1.246613070848363 -0.09195570449958437 0  -1.243980908340246 -0.1225214254119507 0  -1.240599418248387 -0.1530133439990201 0  -1.236470637455976 -0.183413093069202 0  -1.231597052986177 -0.2137023609503762 0  -1.225981600504038 -0.2438629025201605 0  -1.219627662548161 -0.2738765501960873 0  -1.21253906649318 -0.3037252248790798 0  -1.2047200822443 -0.3333909468436228 0  -1.196175419665261 -0.3628558465680776 0  -1.186910225741296 -0.392102175498614 0  -1.176930081478776 -0.4211123167402752 0  -1.166240998543424 -0.4498687956687352 0  -1.154849415639108 -0.4783542904563621 0  -1.142762194629413 -0.5065516425062371 0  -1.129986616404304 -0.5344438667878523 0  -1.116530376494394 -0.5620141620682583 0  -1.102401580435444 -0.5892459210324971 0  -1.087608738885889 -0.6161227402872299 0  -1.07216076250034 -0.6426284302415269 0  -1.056066956562134 -0.6687470248588712 0  -1.039337015378182 -0.6944627912745025 0  -1.02198101643948 -0.7197602392723067 0  -1.004009414350806 -0.7446241306155416 0  -0.9854330345332579 -0.7690394882257834 0  -0.9662630667034213 -0.7929916052045566 0  -0.946511058133106 -0.8164660536922207 0  -0.9261889066936989 -0.8394486935587731 0  -0.9053088536893338 -0.8619256809213336 0  -0.8838834764831847 -0.8838834764831843 0  -0.8619256809213338 -0.9053088536893334 0  -0.8394486935587733 -0.9261889066936986 0  -0.8164660536922214 -0.9465110581331053 0  -0.7929916052045574 -0.9662630667034209 0  -0.7690394882257841 -0.9854330345332574 0  -0.7446241306155414 -1.004009414350806 0  -0.7197602392723066 -1.02198101643948 0  -0.6944627912745027 -1.039337015378182 0  -0.6687470248588716 -1.056066956562134 0  -0.6426284302415273 -1.07216076250034 0  -0.6161227402872302 -1.087608738885889 0  -0.5892459210324973 -1.102401580435444 0  -0.5620141620682586 -1.116530376494394 0  -0.5344438667878531 -1.129986616404304 0  -0.506551642506238 -1.142762194629413 0  -0.4783542904563629 -1.154849415639108 0  -0.4498687956687349 -1.166240998543424 0  -0.4211123167402749 -1.176930081478776 0  -0.3921021754986143 -1.186910225741296 0  -0.3628558465680781 -1.196175419665261 0  -0.3333909468436231 -1.2047200822443 0  -0.3037252248790802 -1.21253906649318 0  -0.2738765501960876 -1.219627662548161 0  -0.2438629025201608 -1.225981600504038 0  -0.2137023609503771 -1.231597052986176 0  -0.1834130930692029 -1.236470637455976 0  -0.1530133439990199 -1.240599418248387 0  -0.1225214254119506 -1.243980908340246 0  -0.09195570449958419 -1.246613070848363 0  -0.06133459290927254 -1.248494320256466 0  -0.03067653565364049 -1.249623523370255 0  -2.296212748401287e-16 -1.25 0  0.03067653565364003 -1.249623523370255 0  0.06133459290927207 -1.248494320256466 0  0.09195570449958373 -1.246613070848363 0  0.1225214254119501 -1.243980908340246 0  0.1530133439990195 -1.240599418248387 0  0.1834130930692024 -1.236470637455976 0  0.2137023609503766 -1.231597052986177 0  0.2438629025201604 -1.225981600504038 0  0.2738765501960872 -1.219627662548161 0  0.3037252248790797 -1.21253906649318 0  0.3333909468436227 -1.2047200822443 0  0.3628558465680776 -1.196175419665261 0  0.3921021754986139 -1.186910225741296 0  0.4211123167402745 -1.176930081478776 0  0.4498687956687345 -1.166240998543424 0  0.4783542904563625 -1.154849415639108 0  0.5065516425062375 -1.142762194629413 0  0.5344438667878527 -1.129986616404304 0  0.5620141620682583 -1.116530376494394 0  0.589245921032497 -1.102401580435444 0  0.6161227402872298 -1.087608738885889 0  0.6426284302415269 -1.07216076250034 0  0.6687470248588712 -1.056066956562134 0  0.6944627912745023 -1.039337015378182 0  0.7197602392723061 -1.02198101643948 0  0.7446241306155411 -1.004009414350806 0  0.7690394882257838 -0.9854330345332576 0  0.792991605204557 -0.9662630667034211 0  0.8164660536922209 -0.9465110581331058 0  0.8394486935587729 -0.9261889066936989 0  0.8619256809213336 -0.9053088536893338 0  0.8838834764831842 -0.8838834764831847 0  0.9053088536893333 -0.8619256809213339 0  0.9261889066936986 -0.8394486935587733 0  0.9465110581331053 -0.8164660536922214 0  0.9662630667034209 -0.7929916052045574 0  0.9854330345332574 -0.7690394882257843 0  1.004009414350806 -0.7446241306155416 0  1.02198101643948 -0.7197602392723066 0  1.039337015378182 -0.6944627912745027 0  1.056066956562134 -0.6687470248588716 0  1.07216076250034 -0.6426284302415274 0  1.087608738885889 -0.6161227402872304 0  1.102401580435443 -0.5892459210324974 0  1.116530376494394 -0.5620141620682587 0  1.129986616404304 -0.5344438667878532 0  1.142762194629413 -0.50655164250623
[...]
<PointData  Scalars="f_927888"> 
<DataArray  type="Float64"  Name="f_927888"  format="ascii">2.2241842437521295e-05  1.8074270167669389e-04  3.4652373200578265e-04  5.0626341211867671e-04  6.7615768323015999e-04  8.4793655296645733e-04  9.9119047670417405e-04  1.1471750256037778e-03  1.2809333605042982e-03  1.4039030472203845e-03  1.5740854137784573e-03  1.7111132427581762e-03  1.8531783680573082e-03  2.0283757178884022e-03  2.1935300864068786e-03  2.2156899536569714e-03  2.3058458156512175e-03  2.4881726882611940e-03  2.6187775147924241e-03  2.7468605190361494e-03  2.7395153347316552e-03  2.7419399864228719e-03  2.8771385392859531e-03  2.8709362341653622e-03  2.9481027850370347e-03  2.9852985126839022e-03  3.0994005343584034e-03  3.2792806607614875e-03  3.3789355401932998e-03  3.2723259851014956e-03  3.3133202770769701e-03  3.3924372979830539e-03  3.3378462691691620e-03  3.1864263956471140e-03  3.1265411162337766e-03  3.0638046839746168e-03  2.9351544472418834e-03  3.0193629233876756e-03  2.8638685906158166e-03  2.7875121802505747e-03  2.8240591295185550e-03  2.7699912002165901e-03  2.6295966501167635e-03  2.5709892412197036e-03  2.5470925268254530e-03  2.4143353840544984e-03  2.2872473456405406e-03  2.2453287573082192e-03  2.1342618729553887e-03  1.9298591127097629e-03  1.6924802108251983e-03  1.6115148735731165e-03  1.5189093017441272e-03  1.4510192387144816e-03  1.3146336888547445e-03  1.1368866162288426e-03  1.0160726456389106e-03  8.6762239700847110e-04  7.0210910303173041e-04  5.3861275689258664e-04  4.0793684963397225e-04  1.6998997523308491e-04  -4.1938493998247179e-05  -6.7839665017931008e-05  -1.4497737521804353e-04  -4.1149441837988633e-04  -4.1882210734509999e-04  -5.9239304808272452e-04  -6.7385630013400935e-04  -8.3039053768536831e-04  -8.8662075210853731e-04  -1.0970035251923504e-03  -1.0769725563597064e-03  -1.1977737213415315e-03  -1.1285973922913596e-03  -1.3250558849447445e-03  -1.2671919711906329e-03  -1.1850318540203931e-03  -1.3258537624359571e-03  -1.3355980789323185e-03  -1.1550098830485250e-03  -1.2599095936863566e-03  -1.2139630952002461e-03  -1.0724280854970403e-03  -9.1790067275788459e-04  -7.3198901917138068e-04  -8.6212584757126322e-04  -3.9124326157570299e-04  -4.3659181126700684e-05  -6.3676038397442495e-04  -5.1398279617535087e-04  -1.1680170569637980e-04  -1.8680172100020670e-04  6.9524110524716705e-05  1.6833807395031703e-04  7.5476080176200666e-04  -3.2577147426239946e-04  -6.9380818373667634e-04  -2.9695373651382809e-04  8.5274104975908028e-03  7.7509609728719795e-03  1.0674870033667561e-02  1.2472220028408089e-02  1.3826176166233273e-02  1.5857271177356035e-02  1.6787246652370920e-02  1.7726509872342647e-02  1.8537670603456718e-02  1.9192729438828007e-02  1.9545962915059611e-02  2.0356966039186186e-02  2.0027984131059273e-02  2.0036945978799861e-02  2.0214815196447258e-02  1.9960183778362544e-02  1.9482985661916176e-02  1.8754329089291186e-02  1.8001217835080324e-02  1.7103707953071784e-02  1.6035792263639152e-02  1.4676286266039455e-02  1.3142611715631660e-02  1.1593455772103222e-02  9.9548359206942470e-03  8.2145776916400359e-03  6.2248627654567694e-03  4.1752252415753486e-03  2.2130919930598552e-03  2.6171043560902646e-04  -1.6995189358251955e-03  -3.6661355366753128e-03  -5.7398506552071224e-03  -7.7221512027450265e-03  -9.4640660782739604e-03  -1.1114508822043867e-02  -1.2664039761412242e-02  -1.4207865609887169e-02  -1.5564043560170149e-02  -1.6663297353056734e-02  -1.7637252699883189e-02  -1.8464889936888731e-02  -1.9242886177241587e-02  -1.9716235764039431e-02  -1.9714445874654273e-02  -2.0213077151146581e-02  -1.9903414772704610e-02  -2.0232732677403685e-02  -1.9360765107739229e-02  -1.8717920466682327e-02  -1.8285669938564775e-02  -1.7636132364977006e-02  -1.6610288187231988e-02  -1.4814918959359274e-02  -1.3599234156063870e-02  -1.2003226347666644e-02  -9.5234017719799339e-03  -5.9229957543206471e-03  -7.7603107169009929e-03  -2.4049620603907166e-04  3.1880840892722554e-04  1.1266873626051832e-03  2.2576240024221240e-04  -1.6224146862121815e-04  -1.8877579494552187e-04  -9.7489664610393535e-05  3.8775974005843239e-04  5.2539471762781686e-04  3.0245477811296595e-04  4.4031933369731240e-04  8.6751996474869616e-04  6.1044757706730211e-04  7.6184095307096173e-04  1.0829029047416494e-03  1.0554248205857997e-03  1.1616893540894666e-03  1.2540578762358420e-03  1.2920951833046894e-03  1.3697349383786834e-03  1.3179248366597144e-03  1.3550434575131860e-03  1.5579757871469104e-03  1.4320989244835467e-03  1.1812453600258696e-03  1.3000881241427220e-03  8.7655694638227768e-04  1.0571764973911623e-03  9.2082903693280151e-04  8.6872623201287181e-04  7.0534644842899037e-04  7.1098332317795954e-04  4.4535435125386347e-04  4.3399209337100089e-04  3.2950665994642457e-04  1.3638152192048717e-04  -3.0328701873408604e-05  -1.5188588203597623e-04  -3.4248057329368763e-04  -4.7151775638856259e-04  -6.0415241764273891e-04  -7.8558062140619432e-04  -9.5371412694218380e-04  -1.2291566290299227e-03  -1.3999211180054298e-03  -1.4550467874220856e-03  -1.5925250312835895e-03  -1.8047202699416800e-03  -1.8876912377137367e-03  -2.1438860692678499e-03  -2.3399430338136443e-03  -2.3379091132426596e-03  -2.3594130109613341e-03  -2.6253990918137650e-03  -2.7261382836756315e-03  -2.7604129947992597e-03  -2.9014566798010195e-03  -2.9147725401754555e-03  -2.9147107969102349e-03  -3.0878703944521640e-03  -3.1231148460374768e-03  -3.0160088569875982e-03  -3.2582829169960320e-03  -3.3686527114943714e-03  -3.4638740618044596e-03  -3.4959732568347330e-03  -3.4388055969404030e-03  -3.5172046231656509e-03  -3.4711500897019669e-03  -3.2779731742814100e-03  -3.3132213412340214e-03  -3.2320867660384656e-03  -3.2047552644133680e-03  -3.2656885706539283e-03  -3.1579389368269748e-03  -3.0083476918423410e-03  -2.9041363017204736e-03  -2.7858681562074883e-03  -2.7823224026901116e-03  -2.5570745291094870e-03  -2.4667138412836067e-03  -2.4388297075404273e-03  -2.3705458956042036e-03  -2.1948770701342660e-03  -2.0980727125342242e-03  -2.0466133556352726e-03  -1.8919912909875643e-03  -1.6659391415194957e-03  -1.4691869636365459e-03  -1.3526104556687549e-03  -1.1964798773537047e-03  -1.0747842066940539e-03  -9.5952353561224975e-04  -7.6134867653975327e-04  -6.3107598718679621e-04  -4.8521851984207627e-04  -3.2855024057671121e-04  -1.7281850310152882e-04  -5.6737810168413941e-04  9.2985334145795660e-05  6.3423459088613745e-04  1.2703800213148696e-03  1.9259447045193343e-03  2.5417166222286443e-03  3.1147534056005892e-03  3.6741874865567300e-03  4.2782534317108859e-03  4.8414738995496880e-03  5.3890410797118116e-03  5.9684804123762104e-03  6.4986607987734162e-03  7.0465785728840062e-03  7.5555152026556731e-03  8.0844782960930572e-03  8.5705942389955724e-03  9.0471201863060683e-03  9.5150205248862134e-03  9.9397501896326280e-03  1.0338280024745560e-02  1.0737849068867586e-02  1.1097178494152289e-02  1.1404958965612541e-02  1.1688157240916144e-02  1.1903545079879847e-02  1.2163355172830282e-02  1.2397060583257069e-02  1.2577507042260509e-02  1.2782956319263496e-02  1.2924348484478940e-02  1.3034681698294833e-02  1.3096077218814827e-02  1.3165310674138951e-02  1.3202990049726923e-02  1.3214780372200315e-02  1.3175368037597963e-02  1.3150238430077853e-02  1.3078402761459438e-02  1.2968178691692717e-02  1.2833757397377403e-02  1.2653948042417516e-02  1.2449410989394694e-02  1.2214074177432208e-02  1.1977727399006027e-02  1.1681155678285399e-02  1.1353768810929712e-02  1.1012822316200261e-02  1.0589623804036344e-02  1.0159862425122294e-02  9.7165177274392590e-03  9.2812631292126142e-03  8.8371984619468949e-03  8.3423589977799327e-03  7.8281835576290530e-03  7.2647782797239267e-03  6.6103826651646878e-03  5.9622277975323618e-03  5.2731176851325496e-03  4.5185059726262277e-03  3.7272673104820154e-03  2.9401653591411450e-03  2.1461169062965812e-03  1.3016792376775261e-03  4.4412610866739429e-04  -4.0534323158216231e-04  -1.2334011539842980e-03  -2.1887965176071284e-03  -3.0590799814221763e-03  -3.8963799774309922e-03  -4.8461646483669409e-03  -5.6022568553210058e-03  -6.5533989067744353e-03  -7.4642385935599249e-03  -8.3028866900507533e-03  -9.3016233371458756e-03  -1.0176575607850952e-02  -1.1086319897642579e-02  -1.1868064818922514e-02  -1.2821994849583608e-02  -1.3703151998914654e-02  -1.4500956135734372e-02  -1.5419183658039149e-02  -1.6248221108504074e-02  -1.6997767638490167e-02  -1.7741279196148933e-02  -1.8344179359099367e-02  -1.8879226829144457e-02  -1.9330269445521023e-02  -1.9800808791971890e-02  -2.0217004597802457e-02  -2.0498796826447025e-02  -2.0822358726275369e-02  -2.1009336439728063e-02  -2.1157634893803103e-02  -2.1352619666633176e-02  -2.1529549753256688e-02  -2.1664324047510893e-02  -2.1875524669165768e-02  -2.2007384816357247e-02  -2.2148040079206465e-02  -2.2192656789266879e-02  -2.2282345954657157e-02  -2.2297215607975502e-02  -2.2304273355415238e-02  -2.2329538048972784e-02  -2.2264628804229344e-02  -2.2077696380701180e-02  -2.1855715854239878e-02  -2.1578831188093679e-02  -2.1284832877864500e-02  -2.0800178249033636e-02  -2.0333998211616109e-02  -1.9764342826617900e-02  -1.9362627997636925e-02  -1.8620016963022300e-02  -1.7818452523881378e-02  -1.6906656353781569e-02  -1.5926082603397583e-02  -1.4891018051515877e-02  -1.3591893789686045e-02  -1.2528678330265870e-02  -1.1193675981778875e-02  -9.7401327861643110e-03  -8.2339402410561979e-03  -6.6984574930041355e-03  -5.0715450915462161e-03  -3.5305533253478364e-03  -1.8579662674586051e-03  -1.2871005293359322e-04  1.6010089076122288e-03  3.2933035833692960e-03  4.8266357651140235e-03  6.4849198704440289e-03  8.0645233113582054e-03  9.6033077958599996e-03  1.1108504397602938e-02  1.2491966104826611e-02  1.3590823279073653e-02  1.4963223267400565e-02  1.6075255831907623e-02  1.7456373602841725e-02  1.8284559845673030e-02  1.9015195259380266e-02  1.9646510556178321e-02  2.0179959887977328e-02  2.0732902981815033e-02  2.0743804475156384e-02  2.1195963751247729e-02  2.1599955718731498e-02  2.1819737808493229e-02  2.2074029630760467e-02  2.2159138130489399e-02  2.2212714076304312e-02  2.2251494321113216e-02  2.2213141301763578e-02  2.2181435824268934e-02  2.2089331555058871e-02  2.1943052232315175e-02  2.1845376476241341e-02  2.1646201027880448e-02  2.1534139085952506e-02  2.1347888212546153e-02  2.1203357216148414e-02  2.1028932234224446e-02  2.0819602482131511e-02  2.0619659003075663e-02  2.0362864278026326e-02  1.9995723998962447e-02  1.9622878870434023e-02  1.9240893669181382e-02  1.8791425199546505e-02  1.8150105507718988e-02  1.7430883595695140e-02  1.6665479600866978e-02  1.5998062952833927e-02  1.5278043589110593e-02  1.4427061090068985e-02  1.3484484054243981e-02  1.2674166264081131e-02  1.1782208327893642e-02  1.0859685339129812e-02  1.0098340564084504e-02  9.1806557895021956e-03  8.3142756550618740e-03  7.3384110384703324e-03  6.4898225019463605e-03  5.5944379805972751e-03  4.7844157206201965e-03  3.8264822590860508e-03  3.0423237951807580e-03  2.0956818522616001e-03  1.1783177916415170e-03  3.2042627685748660e-04  -5.9138976706451650e-04  -1.4114058652899856e-03  -2.2571913789514579e-03  -3.1071660405071178e-03  -3.9025980594330502e-03  -4.6142745513061975e-03  -5.2987610283629430e-03  -5.9895541660649719e-03  -6.6675175471488241e-03  -7.2930812553264864e-03  -7.9055213545103954e-03  -8.5513970122267097e-03  -9.1405229333940893e-03  -9.6278570665346130e-03  -1.0101176636132648e-02  -1.0561375839559439e-02  -1.1004658611760684e-02  -1.1426074567270817e-02  -1.1804998984519234e-02  -1.2120631056869906e-02  -1.2399171093228870e-02  -1.2679713292582788e-02  -1.2926358199728989e-02  -1.3102294313646375e-02  -1.3264334300562933e-02  -1.3396919692549889e-02  -1.3532726460859536e-02  -1.3629324850906281e-02  -1.3685596947836704e-02  -1.3679372347051048e-02  -1.3664340936782329e-02  -1.3647092694077616e-02  -1.3513624965546995e-02  -1.3329986436407639e-02  -1.3187093062968266e-02  -1.2987256167792810e-02  -1.2796829015132124e-02  -1.2546564219372495e-02  -1.2332279239062964e-02  -1.2115293430767921e-02  -1.1886917239528292e-02  -1.1580948542867526e-02  -1.1197100626663979e-02  -1.0863232216876644e-02  -1.0445940757079927e-02  -1.0003693049540652e-02  -9.6068130740813180e-03  -9.1395814994517065e-03  -8.7287795778512294e-03  -8.2429258219007383e-03  -7.7445520106936222e-03  -7.1900857455717612e-03  -6.6915343428058044e-03  -6.1197554110452466e-03  -5.5542526063788004e-03  -4.9628851605791231e-03  -4.3479276111188653e-03  -3.7733274129950678e-03  -3.1460896794597501e-03  -2.4914826954516829e-03  -1.8644446265684705e-03  -1.2320951393476015e-03  5.6464921664301499e-05  -8.2317775272190642e-04  9.2012131724987208e-04  -1.5126409816953270e-03  1.3388461539233212e-03  -1.7132241042780627e-03  1.6788600620896276e-03  -1.5860063586480670e-03  1.8630027684916407e-03  -1.2760197399710705e-03  1.6604375079286857e-03  -1.2769951215744614e-03  1.6909698912323725e-03  -1.0367330191958948e-03  1.1933186875235768e-03  -1.0354897817394506e-03  2.2758555232418971e-03  -2.7796688707632856e-03  4.0569487930211328e-05  3.0325617808884139e-03  -3.6420901683246725e-05  1.9913948526915573e-04  -7.9934721474780374e-05  -2.0374729406305685e-03  5.8991011639421050e-03  2.3360196530846219e-03  -5.5141933554967420e-03  -2.6493151874439299e-03  -2.0718777732442510e-04  2.2846628287329928e-04  -8.7361125626891079e-03  2.6265705535487415e-03  9.1567083073811305e-03  1.0780893928002298e-05  -7.3799843567585335e-05  -1.0744796238722432e-02  1.1137126706227405e-02  2.2400636029109174e-05  -1.8409396145775800e-03  3.9056425116833882e-04  -4.1215295129678499e-04  3.0490306987268531e-04  3.5761964745359763e-05  8.4327832879181199e-05  6.4117156629323415e-04  -1.1945399850961338e-02  1.1129200566559212e-02  7.9297896203654196e-04  -6.9331648162495143e-04  8.3543567147922372e-04  -7.9440290119208909e-04  -1.8073880818711326e-04  4.1077189668141476e-04  -1.1728330566328111e-04  7.7553366369249224e-03  4.5064861992001994e-03  -8.1741088863574609e-05  7.9637913711671550e-04  -8.0709859295800205e-04  1.1510113166727761e-02  -1.1478551428817315e-02  -4.0267487120692891e-03  -7.4048530956812020e-03  1.0869127151378024e-02  -1.0313966451371913e-02  -1.1973357625724280e-02  -3.0616079509672645e-04  5.3291577955237395e-04  1.1662095135584784e-03  7.0116896944466035e-04  -1.5803908653130531e-03  9.6640917789876102e-03  -1.0091444993989280e-02  9.0687635789484782e-03  -5.6942253853648340e-04  1.1589815978407011e-02  4.5027130983461587e-03  -1.1871536191181517e-03  5.5450081310189428e-04  3.9654040180287664e-04  -4.0830051326889603e-04  4.6763903709914607e-04  -1.1255910393944871e-02  -3.6639192380669735e-04  -5.6608208324270654e-04  -4.2724799786822594e-03  7.3099759176083242e-03  -7.7484055318136893e-03  -1.7066900874640484e-03  -3.8665083014257642e-04  -1.1814179454571047e-02  1.8214095163154849e-03  1.0445644516930346e-02  1.3038584081702148e-03  8.8918367646543574e-03  7.4010319296680192e-05  1.5509274014786114e-04  1.9668295448776979e-03  6.7513888804684584e-04  -1.9548507716530038e-03  -8.8401745582318281e-03  2.0712277967644178e-04  7.8662416889709941e-04  -2.1526543353256127e-04  -4.6923108304113663e-03  -1.1053730410649984e-03  -5.3508883130992072e-04  -9.5392813926740061e-04  2.9618926597419866e-03  1.3062704716729362e-03  -1.4537636468055037e-03  7.4319822998494096e-04  4.4997685627817124e-04  1.3336662259139844e-02  -9.6485904903296661e-03  -1.9635052484068898e-04  -1.9700962931499336e-05  -3.0534684947768710e-04  1.4282724453822694e-03  5.4565613811639940e-03  -1.5056923345876025e-03  -2.7826956731054028e-04  -1.3507454931618713e-05  5.6511408269867671e-03  1.0807422692523934e-03  8.1127057862606794e-03  -1.5829876065406572e-02  2.0249931406447435e-04  6.6873310869622899e-05  -1.8775524144150587e-03  -2.5867588532288519e-03  -1.9039784549594978e-04  1.0209034360845217e-03  5.8001960334285493e-04  -9.9002791073829607e-04  1.4686211125635056e-04  1.4959739230263618e-03  3.3985924897866116e-03  1.6543275125622942e-02  2.9241738601724942e-04  -1.5855330183959376e-03  -1.4260764281934272e-03  8.9320507208087811e-03  1.3715889799512874e-03  -5.0392538627197633e-03  -6.5311246204034033e-03  -6.3643749585957202e-05  2.8079223161660131e-03  -4.6446710587168402e-04  1.7410598387927472e-03  -5.4854732948672645e-04  1.5504409563515331e-03  1.9893093261092758e-04  1.6681990566351239e-03  -5.4751702069201990e-04  -1.6994385845325456e-04  7.1301837716782907e-03  6.0646346310060724e-04  -1.5856020787166456e-03  -1.6741859438719360e-03  5.1244432277779855e-04  -7.0556144788615812e-04  3.0990160398537848e-03  -6.5529626841425940e-03  7.7447030217803626e-03  -1.8341778431326999e-03  -8.3059184588133439e-03  -9.2236822265625920e-03  5.1420056370269480e-04  1.8525434181053137e-03  4.3609618107942373e-03  -6.8717365483915143e-03  -1.8372787866347692e-03  -5.2528435172592789e-04  -1.7889032322585888e-02  1.3081232033672824e-03  1.4512844103193401e-03  -1.3253751294759909e-03  5.9994424398673992e-03  1.1975415800964027e-02  -1.3676315978673559e-03  -1.4667958092226296e-03  7.3780258586627809e-04  -1.1363933800538233e-02  -1.0869653185837816e-02  1.4217124041781004e-03  -2.1112737355634729e-03  1.1300051698357721e-02  1.0935132886641366e-02  -3.0571136339031099e-03  1.7944115243375722e-02  3.6522325707637600e-04  1.4330424897777067e-03  1.0011884672481576e-02  -1.2257716628668862e-03  -1.1116663441806710e-03  -4.9219498062493027e-04  8.3471254889120969e-03  2.6021401501591249e-03  -4.0169577916833736e-04  5.1210446505919555e-06  -2.4723309901251087e-03  -1.2368042284753666e-02  -1.8950152423748326e-02  8.7500382879125314e-04  -6.7548853455002096e-03  3.4654494410092776e-04  6.8323270124898946e-03  -2.3937770242955245e-03  3.1522959887723571e-04  5.0125510738019798e-03  1.2061523004025569e-02  1.2450907918833310e-03  1.1747282500224956e-03  -8.6876421371946219e-05  3.5382410460831971e-04  2.9051936509089816e-03  -6.8165231768778653e-03  -8.3538012333900962e-04  1.8697287354957019e-02  -8.0130240556320568e-03  -1.0550972853046892e-03  -1.1056191906809374e-03  8.6870328052214975e-04  8.9223919858984375e-04  8.3527994197806900e-05  1.4338877556712907e-03  4.7080681728324048e-03  -6.3063347229500325e-03  -6.1738381571781300e-03  -5.4882061857909040e-04  -1.2257502432417668e-02  -3.9970876414074409e-03  -1.0019930941634052e-03  -4.2069539973951233e-05  -3.2607828636077520e-04  -7.1148044917301737e-04  1.1883175164141497e-03  -4.6498377671368835e-04  -1.9158315294315550e-02  7.7046455944575366e-03  -7.1346845818865273e-03  -1.0194082671764634e-02  1.6925728325267962e-03  3.5182307839165842e-04  8.2254965238398869e-03  1.4337448520454637e-03  -1.0362413280852289e-03  -8.4868367768570849e-03  -9.5599018235121810e-04  1.1982435802806753e-02  -2.9047633217801397e-03  1.9394491462637539e-02  7.4463966067074355e-04  -1.5974767887874735e-03  8.1377440478174444e-04  1.9389709375846213e-04  -4.3244057602138199e-04  9.7824812371787766e-04  -4.4461744157488908e-03  -6.2208553691442100e-04  -8.2632530060944081e-04  7.6239152350267205e-04  8.5118633919702721e-04  -1.9740092739350391e-02  1.6987433902110672e-03  1.0646696183588898e-02  1.1201144867516765e-03  1.6729616861973580e-03  -1.2313792737211532e-02  -1.2784475401487080e-02  8.8908758379679480e-03  9.0022816776485892e-03  1.4992716658100552e-03  -3.1456354234581708e-03  -3.4800585327689508e-04  -2.7115533949359800e-03  -1.3267337200224903e-04  -1.4610438392013476e-04  -9.3659168713261705e-04  7.6415006395268951e-04  2.0083837139988478e-03  -4.4746347890755743e-04  -1.6030204213784741e-03  -1.1600669251763965e-02  -2.0885331688045810e-03  -9.8525066405126226e-03  1.9520788073482221e-02  5.2589245732042903e-05  -3.7500435786107987e-04  8.8035727526349153e-03  7.6710047212115039e-04  -1.1132223267139845e-02  -8.8204921685132388e-04  1.1735473073552024e-02  2.0012856061874936e-03  -2.6478486143099093e-03  2.7270207643951980e-04  -7.3621899863076544e-03  1.2347421980267757e-02  2.69818100719