<?xml version="1.0"?>
<VTKFile type="UnstructuredGrid"  version="0.1"  >
<UnstructuredGrid>
<Piece  NumberOfPoints="3832" NumberOfCells="6444">
<Points>
<DataArray  type="Float64"  NumberOfComponents="3"  format="ascii">1.25 0 0  1.249623523370255 0.03067653565364036 0  1.248494320256466 0.06133459290927252 0  1.246613070848363 0.09195570449958429 0  1.243980908340246 0.1225214254119508 0  1.240599418248387 0.1530133439990203 0  1.236470637455976 0.1834130930692022 0  1.231597052986177 0.2137023609503765 0  1.225981600504038 0.2438629025201603 0  1.219627662548161 0.2738765501960873 0  1.21253906649318 0.3037252248790798 0  1.2047200822443 0.333390946843623 0  1.196175419665261 0.3628558465680779 0  1.186910225741296 0.3921021754986144 0  1.176930081478776 0.4211123167402751 0  1.166240998543424 0.4498687956687352 0  1.154849415639108 0.4783542904563622 0  1.142762194629413 0.5065516425062373 0  1.129986616404304 0.5344438667878526 0  1.116530376494394 0.5620141620682582 0  1.102401580435444 0.5892459210324971 0  1.087608738885889 0.61612274028723 0  1.07216076250034 0.642628430241527 0  1.056066956562134 0.6687470248588714 0  1.039337015378182 0.6944627912745027 0  1.02198101643948 0.7197602392723067 0  1.004009414350806 0.7446241306155417 0  0.9854330345332579 0.7690394882257835 0  0.9662630667034212 0.7929916052045569 0  0.9465110581331058 0.8164660536922209 0  0.9261889066936989 0.8394486935587729 0  0.9053088536893338 0.8619256809213336 0  0.8838834764831844 0.8838834764831843 0  0.8619256809213337 0.9053088536893337 0  0.8394486935587729 0.9261889066936989 0  0.8164660536922209 0.9465110581331055 0  0.7929916052045569 0.9662630667034212 0  0.7690394882257835 0.9854330345332578 0  0.7446241306155419 1.004009414350806 0  0.7197602392723067 1.02198101643948 0  0.6944627912745028 1.039337015378182 0  0.6687470248588716 1.056066956562134 0  0.642628430241527 1.07216076250034 0  0.6161227402872301 1.087608738885889 0  0.5892459210324973 1.102401580435444 0  0.5620141620682583 1.116530376494394 0  0.5344438667878527 1.129986616404304 0  0.5065516425062373 1.142762194629413 0  0.4783542904563623 1.154849415639108 0  0.4498687956687353 1.166240998543424 0  0.4211123167402751 1.176930081478776 0  0.3921021754986145 1.186910225741296 0  0.3628558465680779 1.196175419665261 0  0.333390946843623 1.2047200822443 0  0.30372522487908 1.21253906649318 0  0.2738765501960872 1.219627662548161 0  0.2438629025201604 1.225981600504038 0  0.2137023609503767 1.231597052986177 0  0.1834130930692022 1.236470637455976 0  0.1530133439990203 1.240599418248387 0  0.122521425411951 1.243980908340246 0  0.09195570449958432 1.246613070848363 0  0.06133459290927266 1.248494320256466 0  0.03067653565364033 1.249623523370255 0  7.654042494670958e-17 1.25 0  -0.03067653565364018 1.249623523370255 0  -0.06133459290927251 1.248494320256466 0  -0.09195570449958416 1.246613070848363 0  -0.1225214254119508 1.243980908340246 0  -0.1530133439990202 1.240599418248387 0  -0.1834130930692021 1.236470637455976 0  -0.2137023609503766 1.231597052986177 0  -0.2438629025201602 1.225981600504038 0  -0.2738765501960871 1.219627662548161 0  -0.3037252248790798 1.21253906649318 0  -0.3333909468436229 1.2047200822443 0  -0.3628558465680777 1.196175419665261 0  -0.3921021754986143 1.186910225741296 0  -0.4211123167402749 1.176930081478776 0  -0.4498687956687352 1.166240998543424 0  -0.4783542904563621 1.154849415639108 0  -0.5065516425062372 1.142762194629413 0  -0.5344438667878524 1.129986616404304 0  -0.5620141620682584 1.116530376494394 0  -0.5892459210324972 1.102401580435444 0  -0.61612274028723 1.087608738885889 0  -0.642628430241527 1.07216076250034 0  -0.6687470248588713 1.056066956562134 0  -0.6944627912745025 1.039337015378182 0  -0.7197602392723067 1.02198101643948 0  -0.7446241306155417 1.004009414350806 0  -0.7690394882257834 0.9854330345332579 0  -0.7929916052045567 0.9662630667034213 0  -0.8164660536922207 0.9465110581331059 0  -0.8394486935587731 0.9261889066936988 0  -0.8619256809213337 0.9053088536893337 0  -0.8838834764831843 0.8838834764831844 0  -0.9053088536893334 0.8619256809213338 0  -0.9261889066936986 0.8394486935587732 0  -0.9465110581331058 0.8164660536922208 0  -0.9662630667034212 0.7929916052045569 0  -0.9854330345332578 0.7690394882257836 0  -1.004009414350806 0.7446241306155419 0  -1.02198101643948 0.7197602392723068 0  -1.039337015378182 0.6944627912745027 0  -1.056066956562134 0.6687470248588714 0  -1.07216076250034 0.6426284302415273 0  -1.087608738885889 0.6161227402872302 0  -1.102401580435444 0.5892459210324973 0  -1.116530376494394 0.5620141620682586 0  -1.129986616404304 0.5344438667878525 0  -1.142762194629413 0.5065516425062374 0  -1.154849415639108 0.4783542904563624 0  -1.166240998543424 0.4498687956687354 0  -1.176930081478776 0.4211123167402754 0  -1.186910225741296 0.3921021754986143 0  -1.196175419665261 0.362855846568078 0  -1.2047200822443 0.3333909468436231 0  -1.21253906649318 0.3037252248790801 0  -1.219627662548161 0.2738765501960876 0  -1.225981600504038 0.2438629025201608 0  -1.231597052986177 0.2137023609503765 0  -1.236470637455976 0.1834130930692023 0  -1.240599418248387 0.1530133439990204 0  -1.243980908340246 0.122521425411951 0  -1.246613070848363 0.09195570449958466 0  -1.248494320256466 0.06133459290927246 0  -1.249623523370255 0.03067653565364041 0  -1.25 1.530808498934192e-16 0  -1.249623523370255 -0.0306765356536401 0  -1.248494320256466 -0.06133459290927215 0  -1.246613070848363 -0.09195570449958437 0  -1.243980908340246 -0.1225214254119507 0  -1.240599418248387 -0.1530133439990201 0  -1.236470637455976 -0.183413093069202 0  -1.231597052986177 -0.2137023609503762 0  -1.225981600504038 -0.2438629025201605 0  -1.219627662548161 -0.2738765501960873 0  -1.21253906649318 -0.3037252248790798 0  -1.2047200822443 -0.3333909468436228 0  -1.196175419665261 -0.3628558465680776 0  -1.186910225741296 -0.392102175498614 0  -1.176930081478776 -0.4211123167402752 0  -1.166240998543424 -0.4498687956687352 0  -1.154849415639108 -0.4783542904563621 0  -1.142762194629413 -0.5065516425062371 0  -1.129986616404304 -0.5344438667878523 0  -1.116530376494394 -0.5620141620682583 0  -1.102401580435444 -0.5892459210324971 0  -1.087608738885889 -0.6161227402872299 0  -1.07216076250034 -0.6426284302415269 0  -1.056066956562134 -0.6687470248588712 0  -1.039337015378182 -0.6944627912745025 0  -1.02198101643948 -0.7197602392723067 0  -1.004009414350806 -0.7446241306155416 0  -0.9854330345332579 -0.7690394882257834 0  -0.9662630667034213 -0.7929916052045566 0  -0.946511058133106 -0.8164660536922207 0  -0.9261889066936989 -0.8394486935587731 0  -0.9053088536893338 -0.8619256809213336 0  -0.8838834764831847 -0.8838834764831843 0  -0.8619256809213338 -0.9053088536893334 0  -0.8394486935587733 -0.9261889066936986 0  -0.8164660536922214 -0.9465110581331053 0  -0.7929916052045574 -0.9662630667034209 0  -0.7690394882257841 -0.9854330345332574 0  -0.7446241306155414 -1.004009414350806 0  -0.7197602392723066 -1.02198101643948 0  -0.6944627912745027 -1.039337015378182 0  -0.6687470248588716 -1.056066956562134 0  -0.6426284302415273 -1.07216076250034 0  -0.6161227402872302 -1.087608738885889 0  -0.5892459210324973 -1.102401580435444 0  -0.5620141620682586 -1.116530376494394 0  -0.5344438667878531 -1.129986616404304 0  -0.506551642506238 -1.142762194629413 0  -0.4783542904563629 -1.154849415639108 0  -0.4498687956687349 -1.166240998543424 0  -0.4211123167402749 -1.176930081478776 0  -0.3921021754986143 -1.186910225741296 0  -0.3628558465680781 -1.196175419665261 0  -0.3333909468436231 -1.2047200822443 0  -0.3037252248790802 -1.21253906649318 0  -0.2738765501960876 -1.219627662548161 0  -0.2438629025201608 -1.225981600504038 0  -0.2137023609503771 -1.231597052986176 0  -0.1834130930692029 -1.236470637455976 0  -0.1530133439990199 -1.240599418248387 0  -0.1225214254119506 -1.243980908340246 0  -0.09195570449958419 -1.246613070848363 0  -0.06133459290927254 -1.248494320256466 0  -0.03067653565364049 -1.249623523370255 0  -2.296212748401287e-16 -1.25 0  0.03067653565364003 -1.249623523370255 0  0.06133459290927207 -1.248494320256466 0  0.09195570449958373 -1.246613070848363 0  0.1225214254119501 -1.243980908340246 0  0.1530133439990195 -1.240599418248387 0  0.1834130930692024 -1.236470637455976 0  0.2137023609503766 -1.231597052986177 0  0.2438629025201604 -1.225981600504038 0  0.2738765501960872 -1.219627662548161 0  0.3037252248790797 -1.21253906649318 0  0.3333909468436227 -1.2047200822443 0  0.3628558465680776 -1.196175419665261 0  0.3921021754986139 -1.186910225741296 0  0.4211123167402745 -1.176930081478776 0  0.4498687956687345 -1.166240998543424 0  0.4783542904563625 -1.154849415639108 0  0.5065516425062375 -1.142762194629413 0  0.5344438667878527 -1.129986616404304 0  0.5620141620682583 -1.116530376494394 0  0.589245921032497 -1.102401580435444 0  0.6161227402872298 -1.087608738885889 0  0.6426284302415269 -1.07216076250034 0  0.6687470248588712 -1.056066956562134 0  0.6944627912745023 -1.039337015378182 0  0.7197602392723061 -1.02198101643948 0  0.7446241306155411 -1.004009414350806 0  0.7690394882257838 -0.9854330345332576 0  0.792991605204557 -0.9662630667034211 0  0.8164660536922209 -0.9465110581331058 0  0.8394486935587729 -0.9261889066936989 0  0.8619256809213336 -0.9053088536893338 0  0.8838834764831842 -0.8838834764831847 0  0.9053088536893333 -0.8619256809213339 0  0.9261889066936986 -0.8394486935587733 0  0.9465110581331053 -0.8164660536922214 0  0.9662630667034209 -0.7929916052045574 0  0.9854330345332574 -0.7690394882257843 0  1.004009414350806 -0.7446241306155416 0  1.02198101643948 -0.7197602392723066 0  1.039337015378182 -0.6944627912745027 0  1.056066956562134 -0.6687470248588716 0  1.07216076250034 -0.6426284302415274 0  1.087608738885889 -0.6161227402872304 0  1.102401580435443 -0.5892459210324974 0  1.116530376494394 -0.5620141620682587 0  1.129986616404304 -0.5344438667878532 0  1.142762194629413 -0.50655164250623
[...]
<PointData  Scalars="f_5452075"> 
<DataArray  type="Float64"  Name="f_5452075"  format="ascii">9.9998686390108671e-01  9.9991411597580970e-01  9.9983340670852816e-01  9.9974717407715519e-01  9.9966313400327589e-01  9.9958048620846451e-01  9.9950205134513181e-01  9.9942437567596754e-01  9.9935223718707711e-01  9.9930151338784823e-01  9.9922152255716612e-01  9.9914496416364740e-01  9.9908036144144530e-01  9.9899154378852928e-01  9.9890214129620924e-01  9.9888623903362894e-01  9.9883792222901424e-01  9.9875391178935502e-01  9.9869436046838900e-01  9.9862019554346171e-01  9.9861382220885031e-01  9.9861370056527932e-01  9.9855241221474356e-01  9.9855182440222723e-01  9.9851935901009869e-01  9.9849682725639466e-01  9.9844732620811139e-01  9.9835421162724736e-01  9.9829275934626682e-01  9.9834807971383865e-01  9.9833393761557265e-01  9.9828430463895945e-01  9.9830405130620492e-01  9.9836602284938492e-01  9.9840109210667316e-01  9.9843184645456595e-01  9.9848835072049447e-01  9.9846623946098623e-01  9.9852167568765160e-01  9.9856714439322269e-01  9.9856040947395242e-01  9.9856881131711139e-01  9.9863210152074311e-01  9.9867317202947337e-01  9.9868310289769402e-01  9.9873624321199750e-01  9.9880611691154986e-01  9.9883121463721047e-01  9.9886782262094098e-01  9.9895443688414920e-01  9.9908718338830649e-01  9.9913382505987258e-01  9.9917585479876070e-01  9.9920960905695455e-01  9.9925883870830245e-01  9.9932943264725960e-01  9.9941286524568917e-01  9.9946696716304262e-01  9.9954854487439448e-01  9.9962133292801569e-01  9.9965815674548431e-01  9.9979880793259290e-01  9.9992035987858896e-01  9.9987391775424128e-01  9.9987552619184872e-01  1.0000627792402266e+00  9.9999054213094196e-01  1.0000976667072414e+00  1.0001382525884293e+00  1.0002077082618734e+00  1.0001840025853717e+00  1.0003515865247241e+00  1.0003291546949862e+00  1.0004331204801764e+00  1.0002964600413822e+00  1.0007203127755870e+00  1.0005155137667905e+00  1.0004284137292490e+00  1.0007884723506228e+00  1.0007890766327896e+00  1.0003689431969700e+00  1.0006619743332046e+00  1.0006614346863880e+00  1.0004049738394958e+00  1.0004563901147920e+00  1.0003521874936925e+00  1.0005026445009118e+00  1.0004763525736371e+00  1.0001796368628981e+00  1.0001240232965372e+00  9.9992034445892586e-01  9.9984997290052424e-01  9.9901317215681484e-01  9.9942538719558749e-01  9.9860521402162772e-01  9.9974907825489345e-01  1.0001579626234207e+00  1.0000378247938964e+00  9.9978278612207194e-01  9.9801020670785134e-01  9.9562010029921066e-01  9.9443001303968304e-01  9.9343150474843100e-01  9.9267060452998301e-01  9.9162462880776303e-01  9.9113541629620927e-01  9.9063142030204621e-01  9.9024524434828287e-01  9.8996196213234366e-01  9.8980980387747242e-01  9.8962436642910345e-01  9.8963068595135628e-01  9.8966655949359805e-01  9.8979494079922248e-01  9.8989963902695999e-01  9.8995162214459442e-01  9.9029006058564495e-01  9.9073951798773741e-01  9.9126942756899894e-01  9.9187929770945404e-01  9.9255657124508034e-01  9.9328828918347178e-01  9.9413882256588593e-01  9.9505622387301496e-01  9.9602417819760469e-01  9.9703358452851154e-01  9.9808012921255373e-01  9.9917798165589411e-01  1.0002952224749426e+00  1.0014117182561026e+00  1.0025079983727625e+00  1.0035503338723277e+00  1.0045557288510771e+00  1.0055149956278795e+00  1.0064088350182592e+00  1.0071996125154488e+00  1.0078876800059657e+00  1.0085341459543604e+00  1.0091046875046090e+00  1.0095864656672238e+00  1.0099765291789475e+00  1.0101051272158947e+00  1.0102321378020160e+00  1.0104649017729816e+00  1.0105841414336290e+00  1.0106456461988527e+00  1.0106298535575193e+00  1.0103835713440357e+00  1.0100753490810506e+00  1.0098124426636657e+00  1.0094171250682864e+00  1.0087734027970550e+00  1.0077584291800279e+00  1.0070717967691578e+00  1.0062396861955183e+00  1.0049335119677658e+00  1.0033131941276339e+00  1.0012796374805348e+00  9.9968822598098483e-01  9.9992391410461889e-01  9.9997687277727365e-01  1.0008981419536709e+00  1.0007360736975197e+00  1.0013459137861920e+00  1.0004804838515342e+00  1.0004241710432835e+00  9.9996555575009627e-01  1.0003944004311067e+00  1.0001388295635105e+00  9.9970918248254981e-01  9.9951820145841419e-01  9.9938572767157241e-01  9.9961715367754722e-01  9.9945668096639895e-01  9.9947082482038441e-01  9.9948736072948308e-01  9.9939839465299651e-01  9.9929102312352580e-01  9.9935299017996515e-01  9.9940121191890730e-01  9.9907430553629151e-01  9.9925913305735681e-01  9.9962525506984168e-01  9.9933913750016223e-01  9.9992452020754452e-01  9.9972897567971819e-01  9.9977600286724588e-01  9.9981131688791236e-01  9.9991114063523745e-01  9.9981876876982101e-01  1.0000226755376316e+00  9.9995569395264028e-01  9.9999188153357199e-01  1.0001141721856317e+00  1.0001863115141114e+00  1.0002309449419937e+00  1.0002968091717814e+00  1.0003631313379315e+00  1.0004325104174805e+00  1.0005376157465626e+00  1.0006162310458280e+00  1.0007334660178440e+00  1.0007963739538268e+00  1.0008071437178621e+00  1.0008759999972205e+00  1.0009752058664716e+00  1.0010206829733244e+00  1.0011571259220726e+00  1.0012432318639040e+00  1.0012288389405457e+00  1.0012522171856937e+00  1.0013868582081420e+00  1.0014099785005304e+00  1.0014371654808221e+00  1.0015079110702731e+00  1.0014951637536458e+00  1.0015107269278345e+00  1.0015974487284334e+00  1.0015887164206336e+00  1.0015510364436477e+00  1.0016665181776254e+00  1.0017135728783275e+00  1.0017606151723228e+00  1.0017640935752545e+00  1.0017414889460674e+00  1.0017780871123048e+00  1.0017427317514864e+00  1.0016625809368527e+00  1.0016823070076510e+00  1.0016412702784336e+00  1.0016285224845332e+00  1.0016450361564053e+00  1.0015752172457582e+00  1.0015069757227706e+00  1.0014546118241556e+00  1.0014026579841504e+00  1.0013947388419788e+00  1.0012902829127985e+00  1.0012480122428109e+00  1.0012273880120430e+00  1.0011773728842135e+00  1.0010992165162782e+00  1.0010630781321850e+00  1.0010215068700092e+00  1.0009409641275027e+00  1.0008293846173486e+00  1.0007374421831770e+00  1.0006747443294688e+00  1.0006035163483153e+00  1.0005485420788822e+00  1.0004722194810989e+00  1.0003861397271610e+00  1.0003256023018903e+00  1.0002465285547972e+00  1.0001596982819143e+00  1.0000837969648673e+00  1.0002977765920313e+00  9.9996562135885969e-01  9.9969461831585682e-01  9.9938033710355123e-01  9.9904091372334669e-01  9.9873968936278079e-01  9.9840039704022854e-01  9.9819748911466244e-01  9.9793736565057267e-01  9.9767528077957690e-01  9.9741497652963618e-01  9.9714068757188401e-01  9.9688298433515810e-01  9.9663196056104408e-01  9.9638753566806482e-01  9.9613308756168117e-01  9.9590044223047314e-01  9.9567734738763480e-01  9.9544029549765256e-01  9.9522750504308088e-01  9.9503521547371643e-01  9.9482434020723265e-01  9.9462446318416808e-01  9.9445964864168956e-01  9.9433244408604748e-01  9.9422294711524950e-01  9.9411070909103783e-01  9.9398142682361379e-01  9.9390836500800772e-01  9.9381672399485355e-01  9.9371127739302723e-01  9.9365014984031652e-01  9.9363380496373743e-01  9.9360727002575744e-01  9.9354796774722665e-01  9.9348076622747039e-01  9.9352252086079273e-01  9.9360803374684248e-01  9.9356917491063013e-01  9.9362685811462870e-01  9.9365390459413716e-01  9.9369102754693805e-01  9.9380102530267012e-01  9.9392425210212298e-01  9.9403555788746756e-01  9.9417119346542504e-01  9.9432422809565102e-01  9.9447036074442252e-01  9.9466788383187332e-01  9.9486504572219825e-01  9.9510857141584230e-01  9.9534351279122690e-01  9.9557011024618458e-01  9.9585886800151457e-01  9.9613333094732426e-01  9.9640392389186316e-01  9.9671625471843217e-01  9.9702706201968649e-01  9.9736598741492333e-01  9.9773621204353857e-01  9.9812978071934166e-01  9.9852029342797743e-01  9.9892182758046000e-01  9.9933296601295729e-01  9.9976293154008300e-01  1.0001917307926484e+00  1.0006005079441826e+00  1.0010541942886295e+00  1.0015030984267250e+00  1.0019789391869520e+00  1.0025338940006863e+00  1.0029145881625581e+00  1.0034181741592658e+00  1.0038858045708077e+00  1.0043323318791424e+00  1.0048028572125223e+00  1.0052461309970562e+00  1.0057764950511539e+00  1.0061500432260138e+00  1.0066263864590625e+00  1.0070771568398511e+00  1.0075274051453478e+00  1.0079591789952311e+00  1.0083439434646231e+00  1.0087348485751673e+00  1.0090854800236655e+00  1.0093789270605122e+00  1.0096300170232311e+00  1.0098608941359923e+00  1.0101536567511573e+00  1.0103636570818755e+00  1.0105210458188461e+00  1.0106461649251524e+00  1.0106638003290471e+00  1.0107901475534460e+00  1.0109521435438840e+00  1.0110984435189996e+00  1.0111947160267503e+00  1.0112726034931900e+00  1.0113241145727780e+00  1.0113738400070886e+00  1.0113860695697394e+00  1.0114068465165607e+00  1.0113941457626483e+00  1.0113681399756429e+00  1.0113130280827738e+00  1.0112149042429077e+00  1.0110955994176567e+00  1.0109958022864098e+00  1.0108045292371000e+00  1.0105770213883298e+00  1.0103245003871242e+00  1.0100480057778627e+00  1.0097907494093925e+00  1.0096512934307771e+00  1.0093992374374112e+00  1.0090034978820166e+00  1.0085716578522472e+00  1.0080964942434458e+00  1.0075890714352880e+00  1.0071145767618692e+00  1.0065249907570009e+00  1.0058618572001565e+00  1.0051286322327861e+00  1.0043727225034584e+00  1.0036139542347118e+00  1.0028631998534028e+00  1.0020150574477513e+00  1.0011458850241655e+00  1.0002743659521851e+00  9.9940286514798304e-01  9.9853092054251424e-01  9.9767866825356244e-01  9.9693215497542642e-01  9.9617152705592282e-01  9.9541283018885396e-01  9.9467563354594135e-01  9.9396153090770334e-01  9.9330957622037985e-01  9.9282532723230210e-01  9.9230090878408861e-01  9.9180263117984047e-01  9.9134284757094915e-01  9.9091549530195533e-01  9.9053895734877406e-01  9.9034177014667624e-01  9.9020109214247665e-01  9.9008219934253261e-01  9.8987996328451822e-01  9.8973233031682151e-01  9.8952124715661072e-01  9.8938992724773001e-01  9.8925356534750464e-01  9.8916447628415838e-01  9.8918288510547292e-01  9.8915545529905624e-01  9.8913015039715746e-01  9.8914382391453137e-01  9.8918799673271463e-01  9.8923975788651364e-01  9.8933146098635061e-01  9.8938018719573262e-01  9.8947340323467414e-01  9.8951492868858848e-01  9.8958709853091720e-01  9.8969609997991126e-01  9.8981615450013327e-01  9.8986832350500364e-01  9.9000281713268912e-01  9.9023462108975246e-01  9.9044152113910311e-01  9.9065524646422054e-01  9.9092412528900142e-01  9.9126002846985173e-01  9.9165996585519733e-01  9.9201838040524226e-01  9.9237771672319275e-01  9.9278236019142041e-01  9.9319809994874875e-01  9.9364006689031581e-01  9.9410861473504253e-01  9.9454642675453531e-01  9.9501032234712594e-01  9.9547764764130076e-01  9.9591698058052247e-01  9.9637516914018764e-01  9.9683987488551662e-01  9.9729489477444200e-01  9.9774812177129890e-01  9.9826451418223816e-01  9.9869240301059947e-01  9.9913722758601620e-01  9.9958637952554641e-01  1.0000114621549867e+00  1.0004474801158993e+00  1.0008765510591429e+00  1.0012980411314538e+00  1.0016984587466284e+00  1.0020711520960472e+00  1.0024164237624493e+00  1.0027661632512375e+00  1.0031313852900958e+00  1.0034725919023462e+00  1.0038358924776998e+00  1.0041467356466423e+00  1.0043704060770375e+00  1.0045858426119092e+00  1.0047981945865312e+00  1.0050323169437845e+00  1.0052664213356621e+00  1.0054944508559516e+00  1.0057169434798807e+00  1.0058748701443727e+00  1.0060112501416456e+00  1.0061380099407402e+00  1.0062994338801339e+00  1.0064123973985666e+00  1.0064853394107465e+00  1.0065888379574142e+00  1.0066803820559287e+00  1.0067691208125902e+00  1.0068304014049403e+00  1.0068634446337847e+00  1.0069035758568217e+00  1.0068926069826878e+00  1.0068247814056408e+00  1.0067476440269922e+00  1.0066581703079112e+00  1.0066332981283346e+00  1.0065305929455357e+00  1.0064287394868521e+00  1.0063188289492995e+00  1.0062063860287283e+00  1.0061095231571313e+00  1.0059492772265692e+00  1.0057686787031637e+00  1.0055766338600705e+00  1.0053954447404745e+00  1.0051928852688548e+00  1.0049785297147902e+00  1.0047794589000028e+00  1.0045632051211810e+00  1.0043469000552760e+00  1.0040788374361673e+00  1.0038136083153362e+00  1.0035367034441889e+00  1.0032804455944553e+00  1.0030101195983325e+00  1.0027410970966637e+00  1.0024622378110617e+00  1.0021717044670431e+00  1.0018852748508431e+00  1.0015795883721326e+00  1.0012543254657287e+00  1.0009457927399303e+00  1.0006283032713885e+00  9.9996582794463429e-01  1.0003291611584619e+00  9.9958840010040273e-01  1.0003712589039826e+00  9.9959967595628674e-01  1.0006929029757961e+00  9.9934269574155354e-01  1.0005354372266075e+00  9.9922797650993067e-01  1.0002874051871662e+00  9.9950250592599799e-01  1.0003509175185645e+00  9.9920398584339376e-01  1.0002543281055611e+00  9.9959920829737747e-01  1.0006642537060240e+00  9.9828015849335017e-01  1.0024806206064312e+00  9.9995666702503971e-01  9.9719174155151313e-01  1.0000296760678373e+00  9.9986884406222620e-01  1.0000811573223010e+00  1.0009119274049172e+00  9.9719296637133481e-01  9.9884813432912067e-01  1.0025674351463667e+00  1.0028290742907564e+00  1.0001757159779443e+00  9.9984203207530919e-01  1.0040789524459506e+00  9.9685134080012305e-01  9.9588039927862460e-01  9.9992010172316725e-01  1.0001223947786457e+00  1.0050828897322557e+00  9.9508671050991737e-01  9.9999262993245730e-01  1.0027561486524768e+00  9.9979613643442933e-01  1.0002242781147861e+00  9.9987373888351361e-01  9.9987206764482273e-01  1.0000404076624818e+00  9.9965072402518007e-01  1.0051538315325281e+00  9.9514582317390776e-01  9.9816414524099617e-01  1.0003939005002700e+00  9.9953521827939840e-01  1.0004588240463035e+00  1.0020028895678574e+00  9.9985598627502936e-01  9.9997651574464630e-01  9.9647137657896534e-01  9.9798418825303259e-01  9.9772074329357630e-01  9.9952203649262139e-01  1.0004688313171741e+00  9.9481164554978030e-01  1.0051871668909171e+00  1.0018168485618699e+00  1.0033780840895870e+00  9.9564624484958097e-01  1.0046190381414959e+00  1.0053212710915869e+00  1.0000620646059040e+00  9.9978046302451373e-01  1.0018814227625519e+00  9.9955783674167487e-01  9.9879696267550377e-01  9.9514971195967128e-01  1.0048813093125506e+00  9.9654048022336172e-01  1.0003876943702221e+00  9.9501567223688625e-01  9.9990868959943802e-01  1.0003710478416716e+00  9.9972854209537920e-01  9.9968019412793208e-01  1.0000292465902438e+00  1.0000883417378055e+00  1.0049535182123748e+00  1.0003129462923275e+00  1.0001580864640671e+00  9.9981871474755546e-01  9.9718458361820828e-01  1.0034014491305641e+00  1.0005143803130589e+00  1.0000745882226301e+00  1.0054269257982018e+00  9.9942006745220047e-01  9.9569223595735556e-01  9.9956677179700359e-01  9.9549556864507582e-01  9.9983748819134877e-01  1.0000329764954805e+00  9.9925308673707502e-01  9.9980922263368388e-01  1.0006001526022983e+00  1.0038676218055882e+00  9.9988929597812770e-01  9.9959627907971782e-01  1.0001114734782401e+00  1.0013319883665006e+00  1.0005788600360528e+00  1.0002815209744742e+00  1.0004931660429117e+00  9.9995098567981600e-01  9.9931845680975406e-01  1.0002705701653360e+00  9.9961971699040997e-01  9.9977499534470304e-01  9.9211304276507994e-01  1.0047254599115842e+00  1.0000633516130490e+00  1.0002490975083813e+00  9.9999588193293820e-01  9.9925326981176710e-01  9.9818018276041731e-01  9.9958639765013957e-01  9.9979928505495486e-01  1.0000086716001251e+00  9.9722742571633394e-01  9.9944735191204070e-01  9.9741004525840660e-01  1.0082592021896106e+00  9.9990550890026297e-01  9.9998611591298625e-01  1.0006337630619393e+00  1.0012426012167011e+00  9.9968780274979085e-01  9.9967456971320812e-01  9.9978257065941956e-01  1.0005143609490661e+00  1.0010233444539633e+00  9.9916995380890461e-01  9.9835686943520918e-01  9.9091848960490125e-01  1.0002098908427952e+00  1.0008300021951702e+00  1.0007364245282071e+00  9.9570962026201004e-01  9.9925952173896015e-01  1.0025081779046174e+00  1.0031382900010346e+00  1.0000595779295316e+00  9.9817449208254427e-01  1.0002921533666769e+00  9.9942067693081116e-01  1.0002529507689963e+00  9.9918512186912967e-01  9.9991535976623369e-01  9.9961215703541140e-01  1.0002570126301680e+00  1.0000508641241415e+00  9.9662887011438606e-01  9.9968429344193532e-01  1.0008518921823897e+00  1.0008840490746067e+00  9.9975342851478033e-01  1.0002800878702258e+00  9.9825381834966864e-01  1.0023804607401532e+00  9.9522109353123545e-01  1.0014628107641370e+00  1.0040905829780202e+00  1.0046030455292070e+00  9.9975701757160262e-01  9.9881881224406233e-01  9.9725957823409650e-01  1.0048942611576015e+00  1.0009471309822338e+00  1.0010744619036445e+00  1.0097605615733152e+00  9.9975206424611962e-01  9.9922587244805283e-01  1.0006011152459517e+00  9.9633001439075919e-01  9.9408047673199751e-01  1.0007461594861939e+00  1.0008141389940026e+00  9.9969689881377022e-01  1.0056997835631485e+00  1.0053967367424623e+00  9.9934535210416353e-01  1.0013457101487016e+00  9.9434836081654121e-01  9.9454782776485884e-01  1.0010670569288842e+00  9.9037909042860794e-01  9.9918295357131603e-01  9.9923234408204487e-01  9.9516544372453031e-01  1.0009913234195085e+00  1.0002483961431055e+00  1.0002533754870171e+00  9.9508481073810540e-01  9.9834277986132336e-01  9.9991267909434267e-01  1.0000057137194494e+00  1.0016797854331618e+00  1.0060805985610455e+00  1.0102520756565216e+00  1.0001127711223645e+00  1.0042951697108715e+00  9.9980807166821228e-01  9.9579825186491344e-01  1.0016483571309185e+00  9.9995017310131951e-01  9.9662160711289716e-01  9.9404575090362468e-01  9.9931197808901162e-01  9.9933323701211929e-01  1.0000240616669087e+00  1.0001846548530631e+00  9.9799689016359860e-01  1.0044101917417987e+00  1.0004143903005072e+00  9.9033462233539948e-01  1.0049681999714777e+00  1.0006441808280786e+00  1.0006626286468476e+00  9.9868532698068735e-01  9.9954848073578639e-01  9.9996034732730443e-01  9.9926994895759613e-01  9.9779393033219466e-01  1.0037216228748547e+00  1.0041677042556414e+00  1.0010080654728963e+00  1.0061843752816344e+00  1.0019883491169075e+00  1.0005091666795378e+00  1.0001390410604056e+00  1.0000546360514648e+00  1.0004661731569153e+00  9.9953442226631861e-01  1.0000478001704813e+00  1.0100222325980739e+00  9.9522640475357060e-01  1.0048847790122439e+00  1.0050872008913525e+00  9.9912661904909128e-01  9.9982102706648524e-01  9.9607501369604345e-01  9.9908459601722366e-01  1.0004502851101895e+00  1.0038329812015181e+00  1.0001396879143993e+00  9.9402059613111482e-01  1.0012801184156916e+00  9.9048077518374689e-01  9.9969980371614275e-01  1.0008139866855075e+00  9.9996374104621988e-01  9.9984434087358032e-01  9.9971811522560527e-01  9.9990721716426667e-01  1.0017288419288140e+00  1.0004696244868425e+00  1.0005443831164254e+00  9.9950461020185133e-01  9.9948507174792667e-01  1.0098616710444701e+00  9.9939856165398377e-01  9.9470953573894605e-01  9.9932704860844646e-01  1.0001863183817110e+00  1.0061216336964744e+00  1.0062836702756293e+00  9.9461855638927266e-01  9.9450605989443408e-01  9.9923430414968717e-01  1.0007286302820373e+00  1.0001014462724678e+00  1.0025924860958739e+00  1.0001355070836435e+00  9.9918617007436750e-01  1.0010283608223813e+00  9.9888605441999723e-01  9.9896368450133710e-01  1.0001757495621544e+00  1.0019629684516644e+00  1.0057386251645224e+00  1.0010663198430756e+00  1.0056551622273873e+00  9.9032381503538025e-01  9.9956978408865671e-01  1.0007988025179182e+00  9.9455154919530109e-01  9.9974246925231225e-01  1.0054318605581805e+00  1.0004528926875467e+00  9.9416452644153686e-01  9.9895513973491090e-01  1.0037282674677104e+00  9.9977841412971324e-01  1.0036524520303611e+00  9.9399217765332815e-01  9.9724084068257679e-01  9.9925251605453769e-01  1.0000387660910797e+00  9.9687468658063616e-01  9.9418593649010911e-01  1.0060713200907723e+00  9.9995681459586583e-01  1.0002148493804437e+00  1.0099327315463513e+00  9.9708811417693122e-01  1.0058219313342680e+00  1.0042616550116590e+00  1.0003700212099731e+00  1.0007180017603674e+00  9.9995411605748630e-01  1.0063750979039976e+00  1.0004383219825312e+00  9.9970384