<?xml version="1.0"?>
<VTKFile type="UnstructuredGrid"  version="0.1"  >
<UnstructuredGrid>
<Piece  NumberOfPoints="3915" NumberOfCells="6507">
<Points>
<DataArray  type="Float64"  NumberOfComponents="3"  format="ascii">1.25 0 0  1.249623523370255 0.03067653565364036 0  1.248494320256466 0.06133459290927252 0  1.246613070848363 0.09195570449958429 0  1.243980908340246 0.1225214254119508 0  1.240599418248387 0.1530133439990203 0  1.236470637455976 0.1834130930692022 0  1.231597052986177 0.2137023609503765 0  1.225981600504038 0.2438629025201603 0  1.219627662548161 0.2738765501960873 0  1.21253906649318 0.3037252248790798 0  1.2047200822443 0.333390946843623 0  1.196175419665261 0.3628558465680779 0  1.186910225741296 0.3921021754986144 0  1.176930081478776 0.4211123167402751 0  1.166240998543424 0.4498687956687352 0  1.154849415639108 0.4783542904563622 0  1.142762194629413 0.5065516425062373 0  1.129986616404304 0.5344438667878526 0  1.116530376494394 0.5620141620682582 0  1.102401580435444 0.5892459210324971 0  1.087608738885889 0.61612274028723 0  1.07216076250034 0.642628430241527 0  1.056066956562134 0.6687470248588714 0  1.039337015378182 0.6944627912745027 0  1.02198101643948 0.7197602392723067 0  1.004009414350806 0.7446241306155417 0  0.9854330345332579 0.7690394882257835 0  0.9662630667034212 0.7929916052045569 0  0.9465110581331058 0.8164660536922209 0  0.9261889066936989 0.8394486935587729 0  0.9053088536893338 0.8619256809213336 0  0.8838834764831844 0.8838834764831843 0  0.8619256809213337 0.9053088536893337 0  0.8394486935587729 0.9261889066936989 0  0.8164660536922209 0.9465110581331055 0  0.7929916052045569 0.9662630667034212 0  0.7690394882257835 0.9854330345332578 0  0.7446241306155419 1.004009414350806 0  0.7197602392723067 1.02198101643948 0  0.6944627912745028 1.039337015378182 0  0.6687470248588716 1.056066956562134 0  0.642628430241527 1.07216076250034 0  0.6161227402872301 1.087608738885889 0  0.5892459210324973 1.102401580435444 0  0.5620141620682583 1.116530376494394 0  0.5344438667878527 1.129986616404304 0  0.5065516425062373 1.142762194629413 0  0.4783542904563623 1.154849415639108 0  0.4498687956687353 1.166240998543424 0  0.4211123167402751 1.176930081478776 0  0.3921021754986145 1.186910225741296 0  0.3628558465680779 1.196175419665261 0  0.333390946843623 1.2047200822443 0  0.30372522487908 1.21253906649318 0  0.2738765501960872 1.219627662548161 0  0.2438629025201604 1.225981600504038 0  0.2137023609503767 1.231597052986177 0  0.1834130930692022 1.236470637455976 0  0.1530133439990203 1.240599418248387 0  0.122521425411951 1.243980908340246 0  0.09195570449958432 1.246613070848363 0  0.06133459290927266 1.248494320256466 0  0.03067653565364033 1.249623523370255 0  7.654042494670958e-17 1.25 0  -0.03067653565364018 1.249623523370255 0  -0.06133459290927251 1.248494320256466 0  -0.09195570449958416 1.246613070848363 0  -0.1225214254119508 1.243980908340246 0  -0.1530133439990202 1.240599418248387 0  -0.1834130930692021 1.236470637455976 0  -0.2137023609503766 1.231597052986177 0  -0.2438629025201602 1.225981600504038 0  -0.2738765501960871 1.219627662548161 0  -0.3037252248790798 1.21253906649318 0  -0.3333909468436229 1.2047200822443 0  -0.3628558465680777 1.196175419665261 0  -0.3921021754986143 1.186910225741296 0  -0.4211123167402749 1.176930081478776 0  -0.4498687956687352 1.166240998543424 0  -0.4783542904563621 1.154849415639108 0  -0.5065516425062372 1.142762194629413 0  -0.5344438667878524 1.129986616404304 0  -0.5620141620682584 1.116530376494394 0  -0.5892459210324972 1.102401580435444 0  -0.61612274028723 1.087608738885889 0  -0.642628430241527 1.07216076250034 0  -0.6687470248588713 1.056066956562134 0  -0.6944627912745025 1.039337015378182 0  -0.7197602392723067 1.02198101643948 0  -0.7446241306155417 1.004009414350806 0  -0.7690394882257834 0.9854330345332579 0  -0.7929916052045567 0.9662630667034213 0  -0.8164660536922207 0.9465110581331059 0  -0.8394486935587731 0.9261889066936988 0  -0.8619256809213337 0.9053088536893337 0  -0.8838834764831843 0.8838834764831844 0  -0.9053088536893334 0.8619256809213338 0  -0.9261889066936986 0.8394486935587732 0  -0.9465110581331058 0.8164660536922208 0  -0.9662630667034212 0.7929916052045569 0  -0.9854330345332578 0.7690394882257836 0  -1.004009414350806 0.7446241306155419 0  -1.02198101643948 0.7197602392723068 0  -1.039337015378182 0.6944627912745027 0  -1.056066956562134 0.6687470248588714 0  -1.07216076250034 0.6426284302415273 0  -1.087608738885889 0.6161227402872302 0  -1.102401580435444 0.5892459210324973 0  -1.116530376494394 0.5620141620682586 0  -1.129986616404304 0.5344438667878525 0  -1.142762194629413 0.5065516425062374 0  -1.154849415639108 0.4783542904563624 0  -1.166240998543424 0.4498687956687354 0  -1.176930081478776 0.4211123167402754 0  -1.186910225741296 0.3921021754986143 0  -1.196175419665261 0.362855846568078 0  -1.2047200822443 0.3333909468436231 0  -1.21253906649318 0.3037252248790801 0  -1.219627662548161 0.2738765501960876 0  -1.225981600504038 0.2438629025201608 0  -1.231597052986177 0.2137023609503765 0  -1.236470637455976 0.1834130930692023 0  -1.240599418248387 0.1530133439990204 0  -1.243980908340246 0.122521425411951 0  -1.246613070848363 0.09195570449958466 0  -1.248494320256466 0.06133459290927246 0  -1.249623523370255 0.03067653565364041 0  -1.25 1.530808498934192e-16 0  -1.249623523370255 -0.0306765356536401 0  -1.248494320256466 -0.06133459290927215 0  -1.246613070848363 -0.09195570449958437 0  -1.243980908340246 -0.1225214254119507 0  -1.240599418248387 -0.1530133439990201 0  -1.236470637455976 -0.183413093069202 0  -1.231597052986177 -0.2137023609503762 0  -1.225981600504038 -0.2438629025201605 0  -1.219627662548161 -0.2738765501960873 0  -1.21253906649318 -0.3037252248790798 0  -1.2047200822443 -0.3333909468436228 0  -1.196175419665261 -0.3628558465680776 0  -1.186910225741296 -0.392102175498614 0  -1.176930081478776 -0.4211123167402752 0  -1.166240998543424 -0.4498687956687352 0  -1.154849415639108 -0.4783542904563621 0  -1.142762194629413 -0.5065516425062371 0  -1.129986616404304 -0.5344438667878523 0  -1.116530376494394 -0.5620141620682583 0  -1.102401580435444 -0.5892459210324971 0  -1.087608738885889 -0.6161227402872299 0  -1.07216076250034 -0.6426284302415269 0  -1.056066956562134 -0.6687470248588712 0  -1.039337015378182 -0.6944627912745025 0  -1.02198101643948 -0.7197602392723067 0  -1.004009414350806 -0.7446241306155416 0  -0.9854330345332579 -0.7690394882257834 0  -0.9662630667034213 -0.7929916052045566 0  -0.946511058133106 -0.8164660536922207 0  -0.9261889066936989 -0.8394486935587731 0  -0.9053088536893338 -0.8619256809213336 0  -0.8838834764831847 -0.8838834764831843 0  -0.8619256809213338 -0.9053088536893334 0  -0.8394486935587733 -0.9261889066936986 0  -0.8164660536922214 -0.9465110581331053 0  -0.7929916052045574 -0.9662630667034209 0  -0.7690394882257841 -0.9854330345332574 0  -0.7446241306155414 -1.004009414350806 0  -0.7197602392723066 -1.02198101643948 0  -0.6944627912745027 -1.039337015378182 0  -0.6687470248588716 -1.056066956562134 0  -0.6426284302415273 -1.07216076250034 0  -0.6161227402872302 -1.087608738885889 0  -0.5892459210324973 -1.102401580435444 0  -0.5620141620682586 -1.116530376494394 0  -0.5344438667878531 -1.129986616404304 0  -0.506551642506238 -1.142762194629413 0  -0.4783542904563629 -1.154849415639108 0  -0.4498687956687349 -1.166240998543424 0  -0.4211123167402749 -1.176930081478776 0  -0.3921021754986143 -1.186910225741296 0  -0.3628558465680781 -1.196175419665261 0  -0.3333909468436231 -1.2047200822443 0  -0.3037252248790802 -1.21253906649318 0  -0.2738765501960876 -1.219627662548161 0  -0.2438629025201608 -1.225981600504038 0  -0.2137023609503771 -1.231597052986176 0  -0.1834130930692029 -1.236470637455976 0  -0.1530133439990199 -1.240599418248387 0  -0.1225214254119506 -1.243980908340246 0  -0.09195570449958419 -1.246613070848363 0  -0.06133459290927254 -1.248494320256466 0  -0.03067653565364049 -1.249623523370255 0  -2.296212748401287e-16 -1.25 0  0.03067653565364003 -1.249623523370255 0  0.06133459290927207 -1.248494320256466 0  0.09195570449958373 -1.246613070848363 0  0.1225214254119501 -1.243980908340246 0  0.1530133439990195 -1.240599418248387 0  0.1834130930692024 -1.236470637455976 0  0.2137023609503766 -1.231597052986177 0  0.2438629025201604 -1.225981600504038 0  0.2738765501960872 -1.219627662548161 0  0.3037252248790797 -1.21253906649318 0  0.3333909468436227 -1.2047200822443 0  0.3628558465680776 -1.196175419665261 0  0.3921021754986139 -1.186910225741296 0  0.4211123167402745 -1.176930081478776 0  0.4498687956687345 -1.166240998543424 0  0.4783542904563625 -1.154849415639108 0  0.5065516425062375 -1.142762194629413 0  0.5344438667878527 -1.129986616404304 0  0.5620141620682583 -1.116530376494394 0  0.589245921032497 -1.102401580435444 0  0.6161227402872298 -1.087608738885889 0  0.6426284302415269 -1.07216076250034 0  0.6687470248588712 -1.056066956562134 0  0.6944627912745023 -1.039337015378182 0  0.7197602392723061 -1.02198101643948 0  0.7446241306155411 -1.004009414350806 0  0.7690394882257838 -0.9854330345332576 0  0.792991605204557 -0.9662630667034211 0  0.8164660536922209 -0.9465110581331058 0  0.8394486935587729 -0.9261889066936989 0  0.8619256809213336 -0.9053088536893338 0  0.8838834764831842 -0.8838834764831847 0  0.9053088536893333 -0.8619256809213339 0  0.9261889066936986 -0.8394486935587733 0  0.9465110581331053 -0.8164660536922214 0  0.9662630667034209 -0.7929916052045574 0  0.9854330345332574 -0.7690394882257843 0  1.004009414350806 -0.7446241306155416 0  1.02198101643948 -0.7197602392723066 0  1.039337015378182 -0.6944627912745027 0  1.056066956562134 -0.6687470248588716 0  1.07216076250034 -0.6426284302415274 0  1.087608738885889 -0.6161227402872304 0  1.102401580435443 -0.5892459210324974 0  1.116530376494394 -0.5620141620682587 0  1.129986616404304 -0.5344438667878532 0  1.142762194629413 -0.50655164250623
[...]
<PointData  Scalars="f_927873"> 
<DataArray  type="Float64"  Name="f_927873"  format="ascii">9.9998662507006064e-01  9.9991356881520699e-01  9.9983249781306793e-01  9.9974586066979521e-01  9.9966146145561852e-01  9.9957853214832693e-01  9.9949977686248748e-01  9.9942177964227474e-01  9.9934966437527939e-01  9.9929882529677994e-01  9.9921847116622287e-01  9.9914188063745124e-01  9.9907696398706569e-01  9.9898774640898502e-01  9.9889800220059088e-01  9.9888289141280817e-01  9.9883455292127521e-01  9.9874997398618814e-01  9.9869017310546060e-01  9.9861569710450682e-01  9.9860944403007990e-01  9.9860991945159172e-01  9.9854824762491368e-01  9.9854755607485679e-01  9.9851504104420075e-01  9.9849260472915380e-01  9.9844281705889959e-01  9.9834890473403914e-01  9.9828716021350350e-01  9.9834302001399100e-01  9.9832884933880184e-01  9.9827895477943829e-01  9.9829863205786018e-01  9.9836136530413455e-01  9.9839653165455688e-01  9.9842700154855613e-01  9.9848392318768264e-01  9.9846120122590409e-01  9.9851718478100626e-01  9.9856305496645725e-01  9.9855590601259858e-01  9.9856451633575516e-01  9.9862849844604173e-01  9.9866970969148317e-01  9.9867932837664108e-01  9.9873277230228552e-01  9.9880297679269880e-01  9.9882808883788998e-01  9.9886496411142123e-01  9.9895209237407001e-01  9.9908499625488600e-01  9.9913184981293435e-01  9.9917379396078032e-01  9.9920774034616155e-01  9.9925735459333831e-01  9.9932837437181810e-01  9.9941027950772565e-01  9.9946891422138029e-01  9.9955461524839284e-01  9.9962810741642472e-01  9.9964881483979917e-01  9.9978144365644694e-01  9.9992540868168600e-01  9.9985294100220756e-01  9.9986238039076547e-01  1.0000705640524910e+00  9.9999348233403329e-01  1.0000978575663939e+00  1.0001308266238707e+00  1.0002030953800383e+00  1.0001769795642133e+00  1.0003483558711390e+00  1.0003217401939779e+00  1.0004244298075555e+00  1.0002770201355611e+00  1.0007280720389722e+00  1.0005085575995054e+00  1.0004182124069489e+00  1.0007950719494121e+00  1.0007859854664038e+00  1.0003508101048215e+00  1.0006507454842206e+00  1.0006436557678056e+00  1.0003453554746844e+00  1.0003994587395224e+00  1.0002568473032185e+00  1.0002892699307553e+00  9.9975808612757733e-01  9.9943068012014791e-01  1.0001343999231846e+00  9.9984499202237054e-01  9.9983067124136249e-01  9.9901687467089983e-01  9.9932178314312736e-01  9.9869965914740788e-01  9.9919728950409803e-01  9.9992132081586182e-01  9.9995361766167679e-01  1.0002057193479590e+00  9.9603832274676474e-01  9.9618181159487129e-01  9.9447728878669450e-01  9.9344598331496370e-01  9.9268084675591306e-01  9.9163211916321614e-01  9.9114234460023876e-01  9.9063832624483739e-01  9.9025459169521968e-01  9.8997643132513480e-01  9.8983102772478304e-01  9.8966246210913711e-01  9.8969208333128089e-01  9.8979314745266267e-01  9.9001101846142603e-01  9.9020469996450577e-01  9.9042517252275386e-01  9.9067703960508946e-01  9.9101735677836700e-01  9.9145624565497015e-01  9.9206589586496874e-01  9.9279726572443594e-01  9.9357876392450906e-01  9.9441036517685399e-01  9.9528895502955794e-01  9.9622559224107621e-01  9.9721872237561082e-01  9.9823282496993659e-01  9.9924249632853324e-01  1.0002602799654037e+00  1.0012742493691116e+00  1.0022735174333177e+00  1.0032692926635531e+00  1.0042389964798319e+00  1.0051431349044917e+00  1.0059789599047899e+00  1.0067573403698140e+00  1.0074722662102971e+00  1.0081355250016748e+00  1.0087062070118364e+00  1.0091793923185577e+00  1.0095741829672078e+00  1.0098764944255931e+00  1.0101381069626969e+00  1.0104269405171640e+00  1.0105672887036261e+00  1.0106367521009743e+00  1.0106292254350810e+00  1.0103984155390093e+00  1.0101109389370926e+00  1.0098673061412669e+00  1.0094984045407580e+00  1.0089332877226360e+00  1.0079816678639231e+00  1.0072788540457860e+00  1.0063554278665605e+00  1.0049346576554969e+00  1.0028082528384199e+00  1.0036564045148457e+00  9.9981595538151058e-01  1.0002846409281694e+00  9.9996300315877940e-01  1.0009250842782371e+00  1.0007460592069413e+00  1.0013592312669533e+00  1.0004835323155519e+00  1.0004241490071641e+00  9.9997129864162249e-01  1.0004344701103900e+00  1.0001484749613807e+00  9.9975288474836621e-01  9.9991060481644489e-01  9.9976074524515379e-01  9.9963884081805143e-01  9.9949657695603222e-01  9.9945482581607081e-01  9.9959463162957252e-01  9.9931652204637123e-01  9.9918720454830845e-01  9.9945256497277746e-01  9.9941106631459720e-01  9.9907293265427444e-01  9.9926312725511934e-01  9.9963219358508348e-01  9.9932817358351589e-01  9.9995074885522683e-01  9.9973629960212018e-01  9.9978298635717000e-01  9.9981190280502330e-01  9.9991083234177491e-01  9.9981899063529123e-01  1.0000213038507770e+00  9.9995568561627957e-01  9.9999093372188608e-01  1.0001146203889515e+00  1.0001878488753886e+00  1.0002321099554021e+00  1.0002972112803532e+00  1.0003639012080645e+00  1.0004333196813486e+00  1.0005394074595930e+00  1.0006181543138248e+00  1.0007355311135382e+00  1.0007987312662328e+00  1.0008089531439801e+00  1.0008782954644140e+00  1.0009786415707640e+00  1.0010239578851747e+00  1.0011613671390194e+00  1.0012481233534807e+00  1.0012331230344105e+00  1.0012567444458167e+00  1.0013923364944406e+00  1.0014155685554853e+00  1.0014427927728389e+00  1.0015138669510686e+00  1.0015006600030689e+00  1.0015162298446940e+00  1.0016036292274912e+00  1.0015948636081269e+00  1.0015567254312294e+00  1.0016731932958687e+00  1.0017207294679926e+00  1.0017680290521001e+00  1.0017716276865101e+00  1.0017490955252446e+00  1.0017859626069303e+00  1.0017501312859185e+00  1.0016695501174229e+00  1.0016894468102009e+00  1.0016480210258498e+00  1.0016351445447007e+00  1.0016522967879828e+00  1.0015824083399174e+00  1.0015136826715691e+00  1.0014608761009913e+00  1.0014087477345970e+00  1.0014010380514062e+00  1.0012955013510003e+00  1.0012530208401780e+00  1.0012325679432370e+00  1.0011827404365863e+00  1.0011041607416775e+00  1.0010678581383783e+00  1.0010263295179540e+00  1.0009452717281677e+00  1.0008328779380495e+00  1.0007403759800177e+00  1.0006774510943233e+00  1.0006061185890465e+00  1.0005510154166075e+00  1.0004742774554714e+00  1.0003877111295267e+00  1.0003269405491937e+00  1.0002475467140095e+00  1.0001603121712168e+00  1.0000840309775045e+00  1.0002972569717221e+00  9.9995037872191894e-01  9.9970014221962589e-01  9.9939840886234588e-01  9.9904897455126696e-01  9.9876496737157572e-01  9.9847073883496129e-01  9.9818318188231281e-01  9.9789064192962662e-01  9.9761270452559081e-01  9.9733235031663969e-01  9.9704568129933957e-01  9.9677496531975651e-01  9.9651080110645396e-01  9.9625067316627380e-01  9.9598471819335976e-01  9.9574439850647523e-01  9.9550508356353429e-01  9.9525779105246426e-01  9.9502721741980071e-01  9.9481769860286196e-01  9.9462696535245909e-01  9.9443126703604523e-01  9.9425747625565308e-01  9.9412256677956301e-01  9.9402283679118697e-01  9.9390685937096179e-01  9.9380314745722065e-01  9.9371038894186425e-01  9.9361467891456112e-01  9.9352594935330629e-01  9.9347682726298758e-01  9.9346033431464842e-01  9.9340814500697061e-01  9.9339257776558088e-01  9.9337568181790104e-01  9.9342167636771073e-01  9.9343772574721256e-01  9.9346477580764148e-01  9.9350908115910441e-01  9.9358806970044378e-01  9.9365582047588819e-01  9.9377648032582588e-01  9.9390991394309236e-01  9.9402622462305257e-01  9.9416677210833226e-01  9.9432702064154033e-01  9.9448909544361830e-01  9.9471658257592310e-01  9.9493083016803907e-01  9.9519006876255389e-01  9.9541733931372745e-01  9.9564310468773964e-01  9.9591007994865777e-01  9.9617762105628505e-01  9.9643865988654323e-01  9.9674473674855646e-01  9.9705114488286195e-01  9.9738544444701138e-01  9.9774981897990711e-01  9.9813896935932345e-01  9.9852644393482592e-01  9.9892367354906408e-01  9.9933235134952492e-01  9.9975583152038527e-01  1.0001765640735594e+00  1.0005812445897388e+00  1.0010383805941578e+00  1.0014522844072768e+00  1.0019234044382777e+00  1.0025026263218224e+00  1.0028722696868406e+00  1.0033748998039391e+00  1.0038677127334237e+00  1.0042775306691487e+00  1.0047904974319226e+00  1.0052018054702538e+00  1.0057004669784828e+00  1.0060817616944133e+00  1.0065673822864409e+00  1.0069913186580950e+00  1.0073853399331683e+00  1.0078605130034526e+00  1.0082532846583689e+00  1.0086325039159705e+00  1.0089816469818462e+00  1.0092455552004376e+00  1.0095232077046443e+00  1.0097792656605900e+00  1.0100327097600279e+00  1.0102261926644058e+00  1.0103929681293997e+00  1.0105330267916781e+00  1.0105986436000114e+00  1.0106991593598216e+00  1.0108011981915097e+00  1.0109005368836279e+00  1.0109527409414452e+00  1.0110818295833319e+00  1.0111542647758933e+00  1.0111994294612641e+00  1.0112482988995397e+00  1.0112674509570332e+00  1.0112490620620926e+00  1.0113242899322927e+00  1.0113086180405497e+00  1.0112143730412870e+00  1.0110886283213014e+00  1.0109752635755351e+00  1.0107714750701295e+00  1.0105413684261240e+00  1.0102829592480891e+00  1.0099773729217836e+00  1.0097474412614329e+00  1.0094361967987755e+00  1.0091346895273956e+00  1.0087677376629729e+00  1.0083475229882473e+00  1.0078837045500140e+00  1.0073770683363445e+00  1.0068264093861923e+00  1.0062142181689873e+00  1.0055770325563786e+00  1.0048879370142905e+00  1.0041685763775074e+00  1.0034292627946522e+00  1.0026570242226818e+00  1.0018665188884630e+00  1.0010681814270430e+00  1.0002475023655846e+00  9.9942500162552284e-01  9.9861876188536480e-01  9.9781575923270838e-01  9.9702598970140266e-01  9.9626414809721320e-01  9.9551666752331380e-01  9.9479220810792990e-01  9.9411333191288864e-01  9.9344860592224338e-01  9.9283726516015469e-01  9.9225446036023746e-01  9.9168857999041671e-01  9.9138066046111262e-01  9.9109593543572228e-01  9.9084633241268250e-01  9.9063763652947689e-01  9.9049745484933216e-01  9.9021997710251997e-01  9.8996242193452744e-01  9.8975971093842119e-01  9.8955103199787997e-01  9.8941638862945502e-01  9.8927448349828773e-01  9.8917887630371015e-01  9.8919293629419158e-01  9.8916350280113507e-01  9.8913723544305732e-01  9.8915095187595969e-01  9.8919695045405909e-01  9.8925256245904669e-01  9.8934910072940452e-01  9.8940380433124808e-01  9.8950616690025794e-01  9.8956621028388148e-01  9.8964681403239063e-01  9.8974266587703152e-01  9.8988447424885040e-01  9.8997597108580127e-01  9.9013668370095953e-01  9.9036263018540893e-01  9.9055438312783239e-01  9.9079015745748777e-01  9.9102560492574732e-01  9.9138294433041674e-01  9.9180490449672820e-01  9.9215356708705138e-01  9.9251086327203619e-01  9.9289993835432955e-01  9.9332909481035991e-01  9.9372982989012326e-01  9.9422376091140907e-01  9.9463513689138738e-01  9.9497733634244012e-01  9.9547889886830188e-01  9.9589772913482122e-01  9.9640913519780760e-01  9.9687106843770279e-01  9.9733032591957849e-01  9.9773637394701808e-01  9.9828849985862433e-01  9.9871322861942846e-01  9.9914619589925047e-01  9.9959052466570131e-01  1.0000111377069325e+00  1.0004435962881499e+00  1.0008639013493046e+00  1.0012957391435569e+00  1.0016962426129146e+00  1.0020665563268669e+00  1.0024100731074279e+00  1.0027581345085468e+00  1.0031227511605494e+00  1.0034658366446643e+00  1.0038119855781416e+00  1.0041322924139748e+00  1.0044298327971521e+00  1.0046651153897261e+00  1.0049097344927671e+00  1.0051533892036997e+00  1.0053904979904433e+00  1.0056280555969885e+00  1.0058257375137523e+00  1.0060109187367401e+00  1.0061590051376281e+00  1.0062920227018461e+00  1.0064432117697393e+00  1.0065559092009955e+00  1.0066427829786486e+00  1.0067283700706000e+00  1.0068266152478813e+00  1.0068852115277038e+00  1.0069317052631024e+00  1.0069438485045923e+00  1.0069568621666629e+00  1.0069404632173471e+00  1.0069179921787310e+00  1.0068210499361780e+00  1.0067278825627628e+00  1.0066593635114229e+00  1.0065613346613858e+00  1.0064667716515194e+00  1.0063621128216331e+00  1.0062787728852538e+00  1.0061989220664289e+00  1.0060697549215945e+00  1.0058856960669418e+00  1.0056878092391104e+00  1.0055198020961620e+00  1.0052937275522555e+00  1.0050840282048126e+00  1.0048878268804848e+00  1.0046672862517358e+00  1.0044729329592224e+00  1.0042120248809459e+00  1.0039435509699484e+00  1.0036690697928010e+00  1.0034219941253777e+00  1.0031210807960478e+00  1.0028367923547603e+00  1.0025393733133763e+00  1.0022294411429571e+00  1.0019436604080170e+00  1.0016031664670439e+00  1.0012776145437865e+00  1.0009618455600153e+00  1.0006360972969324e+00  9.9996760891099779e-01  1.0003299921893407e+00  9.9958800309222773e-01  1.0003761565445337e+00  9.9959418687088974e-01  1.0006978890178890e+00  9.9933733354842391e-01  1.0005253536844665e+00  9.9923211186560790e-01  1.0003099880393318e+00  9.9950740414484596e-01  1.0003310152457789e+00  9.9921164912950922e-01  1.0002299738182758e+00  9.9962401390366662e-01  1.0004825164642466e+00  9.9824753065150940e-01  1.0024049283667724e+00  9.9995613155416729e-01  9.9721645413125803e-01  1.0000303861299957e+00  9.9986899645029104e-01  1.0000813643312905e+00  1.0009181334133226e+00  9.9723028634573474e-01  9.9891035505286219e-01  1.0025457123572870e+00  1.0027810048624108e+00  1.0001749947195642e+00  9.9984175702137723e-01  1.0041198894870818e+00  9.9689081947930114e-01  9.9592638607786488e-01  9.9991876698246240e-01  1.0001217204749933e+00  1.0051125047954945e+00  9.9502775690582357e-01  9.9999259837653975e-01  1.0027692667019910e+00  9.9979510229493018e-01  1.0002248492690564e+00  9.9987406946108692e-01  9.9986883102528146e-01  1.0000386340269041e+00  9.9965082596842958e-01  1.0051686866908860e+00  9.9508837127309646e-01  9.9812262968694987e-01  1.0003945210520231e+00  9.9953476390281149e-01  1.0004588838534263e+00  1.0019387566166362e+00  9.9985210337286778e-01  9.9997297853137046e-01  9.9650947758444308e-01  9.9798496474556220e-01  9.9787422265794379e-01  9.9951942226007018e-01  1.0004687464042270e+00  9.9479666512611764e-01  1.0051137925123141e+00  1.0017829017601563e+00  1.0034450770036905e+00  9.9561040619222851e-01  1.0046591730734025e+00  1.0052963237861738e+00  1.0000626301832465e+00  9.9977547918553988e-01  1.0018731783842132e+00  9.9955546393575645e-01  9.9833074202132188e-01  9.9513443808408530e-01  1.0049124442603208e+00  9.9650167010035717e-01  1.0003880178977309e+00  9.9497085758220360e-01  9.9996801937920232e-01  1.0003759552039360e+00  9.9972965708744699e-01  9.9967922745457871e-01  1.0000259713349893e+00  1.0000863000310054e+00  1.0048788536169329e+00  1.0003133074796977e+00  1.0001577974558509e+00  9.9952691413658912e-01  9.9708027562263901e-01  1.0034320092365410e+00  1.0005145015665213e+00  9.9995301290761274e-01  1.0059621411757400e+00  9.9940869802506849e-01  9.9567505132750622e-01  9.9956317889434221e-01  9.9735085243322430e-01  9.9983555119673362e-01  1.0000294382500030e+00  9.9924546321838537e-01  9.9980301508398828e-01  1.0006008151040147e+00  1.0022060281037239e+00  9.9988876101485458e-01  9.9959520962490855e-01  1.0001118468437153e+00  1.0015722499111774e+00  1.0005805313721965e+00  1.0002824598875237e+00  1.0004944394901083e+00  9.9982200116816722e-01  9.9931800629994050e-01  1.0002600988038175e+00  9.9964845724701057e-01  9.9977401817255662e-01  9.9451824656946730e-01  1.0047498347487012e+00  1.0000642221992675e+00  1.0002424408646837e+00  1.0000132026385156e+00  9.9925236979037069e-01  9.9829844026873393e-01  9.9960659354545078e-01  9.9980093339712495e-01  1.0000085348397565e+00  9.9722312139523428e-01  9.9944656990078828e-01  9.9698874639581925e-01  1.0082428642237906e+00  9.9990828299455636e-01  9.9998665026403788e-01  1.0006302692838636e+00  1.0012988719050266e+00  9.9967511158544253e-01  9.9967120043302071e-01  9.9977905028620284e-01  1.0004875631923709e+00  1.0010184363587840e+00  9.9926627090496023e-01  9.9832029948478107e-01  9.9091290950693467e-01  1.0002100083272254e+00  1.0008318511308751e+00  1.0007384849386125e+00  9.9559370508455891e-01  9.9925792779883904e-01  1.0025139081045502e+00  1.0032845014723741e+00  1.0000584716255514e+00  9.9818888759291746e-01  1.0002892875738314e+00  9.9942406373196757e-01  1.0002544780273452e+00  9.9918383738256111e-01  9.9991628001825295e-01  9.9961613959420748e-01  1.0002586250870027e+00  1.0000515614873176e+00  9.9651365573427697e-01  9.9968089771108792e-01  1.0008532049563628e+00  1.0008858779037497e+00  9.9975454012581799e-01  1.0003319574284528e+00  9.9825153669016897e-01  1.0023620581387014e+00  9.9519223571895576e-01  1.0014258665493172e+00  1.0041394990690522e+00  1.0046417310904130e+00  9.9975514025878665e-01  9.9884093257852824e-01  9.9730202045685989e-01  1.0046919394421903e+00  1.0009326003266277e+00  1.0011684071143758e+00  1.0097755505900941e+00  9.9828388875776763e-01  9.9922265834249180e-01  1.0006047046372424e+00  9.9632569059157061e-01  9.9399738557812733e-01  1.0007469942385210e+00  1.0008153135056523e+00  9.9969950367898475e-01  1.0057288752497389e+00  1.0054428461599001e+00  9.9933845525406784e-01  1.0013453550916269e+00  9.9428454894269258e-01  9.9444969294307906e-01  1.0027512888039865e+00  9.9053532332776129e-01  9.9911102813012265e-01  9.9922834521484094e-01  9.9504115206340438e-01  1.0009893783919741e+00  1.0002726199109353e+00  1.0002541924590131e+00  9.9504593691350396e-01  9.9836244146228792e-01  9.9991905649100732e-01  1.0000061724973690e+00  1.0016856527564382e+00  1.0060975218412944e+00  1.0102790260676469e+00  1.0001301247005232e+00  1.0043117129604864e+00  9.9980957855919061e-01  9.9576219263051802e-01  1.0016184744335184e+00  9.9994749422395879e-01  9.9671677915318035e-01  9.9398441320647934e-01  9.9930804972773701e-01  9.9933131693549515e-01  1.0000231423053096e+00  1.0001916595132936e+00  9.9795926528951362e-01  1.0043986522318538e+00  1.0004157070559803e+00  9.9038504847587860e-01  1.0049619392119480e+00  1.0006458097611686e+00  1.0006638638208678e+00  9.9861432736569777e-01  9.9954704667815286e-01  9.9996003408551382e-01  9.9926877567761274e-01  9.9769071989708802e-01  1.0037423097379490e+00  1.0040162614348984e+00  1.0010866745522811e+00  1.0062067927487972e+00  1.0020024413942346e+00  1.0005107746440651e+00  1.0001360687073457e+00  1.0000507772086620e+00  1.0012112119257066e+00  9.9952676844165256e-01  1.0000409822584060e+00  1.0100169056746804e+00  9.9529672985048434e-01  1.0048357588035015e+00  1.0051306670722926e+00  9.9912547954881537e-01  9.9981420854838632e-01  9.9595878828347673e-01  9.9911226238938777e-01  1.0004540469093461e+00  1.0050522932705017e+00  1.0001488194497339e+00  9.9398074099962330e-01  1.0022732640083507e+00  9.9028585952860060e-01  9.9969380847385547e-01  1.0008167385181348e+00  9.9996551385726129e-01  9.9984353488802458e-01  9.9972652899244852e-01  9.9990639845582052e-01  1.0030935424749969e+00  1.0004711873743863e+00  1.0005458602821287e+00  9.9950378512156224e-01  9.9948356549233586e-01  1.0100675691347303e+00  9.9939381891894319e-01  9.9469947823001437e-01  9.9935197595915271e-01  1.0001775479202786e+00  1.0061175230031307e+00  1.0063387963074362e+00  9.9459869924439115e-01  9.9447605977452191e-01  9.9923343727563230e-01  1.0007159914329442e+00  1.0001020147289790e+00  1.0025435852358520e+00  1.0001350511563494e+00  9.9920186078494877e-01  1.0011677292267869e+00  9.9885650378263990e-01  9.9896164475301341e-01  1.0001751547847431e+00  1.0019495712999369e+00  1.0056855871415942e+00  1.0010690781034444e+00  1.0056277311451500e+00  9.9036689054321414e-01  9.9949463805424288e-01  1.0009449828999764e+00  9.9453554206687622e-01  9.9977770165421898e-01  1.0054740582862445e+00  1.0004545396169486e+00  9.9413934076713451e-01  9.9895261185959894e-01  1.0035569964604256e+00  9.9977699483999982e-01  1.0037312963987182e+00  9.9389916071600437e-01  9.9727643002823452e-01  9.9925102172988234e-01  1.0000388061324856e+00  9.9688835639463724e-01  9.9419896534202379e-01  1.0060942406465769e+00  9.9995646616530787e-01  1.0002162747215033e+00  1.0100187876362379e+00  9.9606754745724546e-01  1.0058075585370847e+00  1.0042497719468475e+00  1.0003781452768146e+00  1.0007204512023198e+00  9.9995535062715457e-01  1.0062353867007010e+00  1.0004140956655814e+00  9.997036632