<?xml version="1.0"?>
<VTKFile type="UnstructuredGrid"  version="0.1"  >
<UnstructuredGrid>
<Piece  NumberOfPoints="3915" NumberOfCells="6507">
<Points>
<DataArray  type="Float64"  NumberOfComponents="3"  format="ascii">1.25 0 0  1.249623523370255 0.03067653565364036 0  1.248494320256466 0.06133459290927252 0  1.246613070848363 0.09195570449958429 0  1.243980908340246 0.1225214254119508 0  1.240599418248387 0.1530133439990203 0  1.236470637455976 0.1834130930692022 0  1.231597052986177 0.2137023609503765 0  1.225981600504038 0.2438629025201603 0  1.219627662548161 0.2738765501960873 0  1.21253906649318 0.3037252248790798 0  1.2047200822443 0.333390946843623 0  1.196175419665261 0.3628558465680779 0  1.186910225741296 0.3921021754986144 0  1.176930081478776 0.4211123167402751 0  1.166240998543424 0.4498687956687352 0  1.154849415639108 0.4783542904563622 0  1.142762194629413 0.5065516425062373 0  1.129986616404304 0.5344438667878526 0  1.116530376494394 0.5620141620682582 0  1.102401580435444 0.5892459210324971 0  1.087608738885889 0.61612274028723 0  1.07216076250034 0.642628430241527 0  1.056066956562134 0.6687470248588714 0  1.039337015378182 0.6944627912745027 0  1.02198101643948 0.7197602392723067 0  1.004009414350806 0.7446241306155417 0  0.9854330345332579 0.7690394882257835 0  0.9662630667034212 0.7929916052045569 0  0.9465110581331058 0.8164660536922209 0  0.9261889066936989 0.8394486935587729 0  0.9053088536893338 0.8619256809213336 0  0.8838834764831844 0.8838834764831843 0  0.8619256809213337 0.9053088536893337 0  0.8394486935587729 0.9261889066936989 0  0.8164660536922209 0.9465110581331055 0  0.7929916052045569 0.9662630667034212 0  0.7690394882257835 0.9854330345332578 0  0.7446241306155419 1.004009414350806 0  0.7197602392723067 1.02198101643948 0  0.6944627912745028 1.039337015378182 0  0.6687470248588716 1.056066956562134 0  0.642628430241527 1.07216076250034 0  0.6161227402872301 1.087608738885889 0  0.5892459210324973 1.102401580435444 0  0.5620141620682583 1.116530376494394 0  0.5344438667878527 1.129986616404304 0  0.5065516425062373 1.142762194629413 0  0.4783542904563623 1.154849415639108 0  0.4498687956687353 1.166240998543424 0  0.4211123167402751 1.176930081478776 0  0.3921021754986145 1.186910225741296 0  0.3628558465680779 1.196175419665261 0  0.333390946843623 1.2047200822443 0  0.30372522487908 1.21253906649318 0  0.2738765501960872 1.219627662548161 0  0.2438629025201604 1.225981600504038 0  0.2137023609503767 1.231597052986177 0  0.1834130930692022 1.236470637455976 0  0.1530133439990203 1.240599418248387 0  0.122521425411951 1.243980908340246 0  0.09195570449958432 1.246613070848363 0  0.06133459290927266 1.248494320256466 0  0.03067653565364033 1.249623523370255 0  7.654042494670958e-17 1.25 0  -0.03067653565364018 1.249623523370255 0  -0.06133459290927251 1.248494320256466 0  -0.09195570449958416 1.246613070848363 0  -0.1225214254119508 1.243980908340246 0  -0.1530133439990202 1.240599418248387 0  -0.1834130930692021 1.236470637455976 0  -0.2137023609503766 1.231597052986177 0  -0.2438629025201602 1.225981600504038 0  -0.2738765501960871 1.219627662548161 0  -0.3037252248790798 1.21253906649318 0  -0.3333909468436229 1.2047200822443 0  -0.3628558465680777 1.196175419665261 0  -0.3921021754986143 1.186910225741296 0  -0.4211123167402749 1.176930081478776 0  -0.4498687956687352 1.166240998543424 0  -0.4783542904563621 1.154849415639108 0  -0.5065516425062372 1.142762194629413 0  -0.5344438667878524 1.129986616404304 0  -0.5620141620682584 1.116530376494394 0  -0.5892459210324972 1.102401580435444 0  -0.61612274028723 1.087608738885889 0  -0.642628430241527 1.07216076250034 0  -0.6687470248588713 1.056066956562134 0  -0.6944627912745025 1.039337015378182 0  -0.7197602392723067 1.02198101643948 0  -0.7446241306155417 1.004009414350806 0  -0.7690394882257834 0.9854330345332579 0  -0.7929916052045567 0.9662630667034213 0  -0.8164660536922207 0.9465110581331059 0  -0.8394486935587731 0.9261889066936988 0  -0.8619256809213337 0.9053088536893337 0  -0.8838834764831843 0.8838834764831844 0  -0.9053088536893334 0.8619256809213338 0  -0.9261889066936986 0.8394486935587732 0  -0.9465110581331058 0.8164660536922208 0  -0.9662630667034212 0.7929916052045569 0  -0.9854330345332578 0.7690394882257836 0  -1.004009414350806 0.7446241306155419 0  -1.02198101643948 0.7197602392723068 0  -1.039337015378182 0.6944627912745027 0  -1.056066956562134 0.6687470248588714 0  -1.07216076250034 0.6426284302415273 0  -1.087608738885889 0.6161227402872302 0  -1.102401580435444 0.5892459210324973 0  -1.116530376494394 0.5620141620682586 0  -1.129986616404304 0.5344438667878525 0  -1.142762194629413 0.5065516425062374 0  -1.154849415639108 0.4783542904563624 0  -1.166240998543424 0.4498687956687354 0  -1.176930081478776 0.4211123167402754 0  -1.186910225741296 0.3921021754986143 0  -1.196175419665261 0.362855846568078 0  -1.2047200822443 0.3333909468436231 0  -1.21253906649318 0.3037252248790801 0  -1.219627662548161 0.2738765501960876 0  -1.225981600504038 0.2438629025201608 0  -1.231597052986177 0.2137023609503765 0  -1.236470637455976 0.1834130930692023 0  -1.240599418248387 0.1530133439990204 0  -1.243980908340246 0.122521425411951 0  -1.246613070848363 0.09195570449958466 0  -1.248494320256466 0.06133459290927246 0  -1.249623523370255 0.03067653565364041 0  -1.25 1.530808498934192e-16 0  -1.249623523370255 -0.0306765356536401 0  -1.248494320256466 -0.06133459290927215 0  -1.246613070848363 -0.09195570449958437 0  -1.243980908340246 -0.1225214254119507 0  -1.240599418248387 -0.1530133439990201 0  -1.236470637455976 -0.183413093069202 0  -1.231597052986177 -0.2137023609503762 0  -1.225981600504038 -0.2438629025201605 0  -1.219627662548161 -0.2738765501960873 0  -1.21253906649318 -0.3037252248790798 0  -1.2047200822443 -0.3333909468436228 0  -1.196175419665261 -0.3628558465680776 0  -1.186910225741296 -0.392102175498614 0  -1.176930081478776 -0.4211123167402752 0  -1.166240998543424 -0.4498687956687352 0  -1.154849415639108 -0.4783542904563621 0  -1.142762194629413 -0.5065516425062371 0  -1.129986616404304 -0.5344438667878523 0  -1.116530376494394 -0.5620141620682583 0  -1.102401580435444 -0.5892459210324971 0  -1.087608738885889 -0.6161227402872299 0  -1.07216076250034 -0.6426284302415269 0  -1.056066956562134 -0.6687470248588712 0  -1.039337015378182 -0.6944627912745025 0  -1.02198101643948 -0.7197602392723067 0  -1.004009414350806 -0.7446241306155416 0  -0.9854330345332579 -0.7690394882257834 0  -0.9662630667034213 -0.7929916052045566 0  -0.946511058133106 -0.8164660536922207 0  -0.9261889066936989 -0.8394486935587731 0  -0.9053088536893338 -0.8619256809213336 0  -0.8838834764831847 -0.8838834764831843 0  -0.8619256809213338 -0.9053088536893334 0  -0.8394486935587733 -0.9261889066936986 0  -0.8164660536922214 -0.9465110581331053 0  -0.7929916052045574 -0.9662630667034209 0  -0.7690394882257841 -0.9854330345332574 0  -0.7446241306155414 -1.004009414350806 0  -0.7197602392723066 -1.02198101643948 0  -0.6944627912745027 -1.039337015378182 0  -0.6687470248588716 -1.056066956562134 0  -0.6426284302415273 -1.07216076250034 0  -0.6161227402872302 -1.087608738885889 0  -0.5892459210324973 -1.102401580435444 0  -0.5620141620682586 -1.116530376494394 0  -0.5344438667878531 -1.129986616404304 0  -0.506551642506238 -1.142762194629413 0  -0.4783542904563629 -1.154849415639108 0  -0.4498687956687349 -1.166240998543424 0  -0.4211123167402749 -1.176930081478776 0  -0.3921021754986143 -1.186910225741296 0  -0.3628558465680781 -1.196175419665261 0  -0.3333909468436231 -1.2047200822443 0  -0.3037252248790802 -1.21253906649318 0  -0.2738765501960876 -1.219627662548161 0  -0.2438629025201608 -1.225981600504038 0  -0.2137023609503771 -1.231597052986176 0  -0.1834130930692029 -1.236470637455976 0  -0.1530133439990199 -1.240599418248387 0  -0.1225214254119506 -1.243980908340246 0  -0.09195570449958419 -1.246613070848363 0  -0.06133459290927254 -1.248494320256466 0  -0.03067653565364049 -1.249623523370255 0  -2.296212748401287e-16 -1.25 0  0.03067653565364003 -1.249623523370255 0  0.06133459290927207 -1.248494320256466 0  0.09195570449958373 -1.246613070848363 0  0.1225214254119501 -1.243980908340246 0  0.1530133439990195 -1.240599418248387 0  0.1834130930692024 -1.236470637455976 0  0.2137023609503766 -1.231597052986177 0  0.2438629025201604 -1.225981600504038 0  0.2738765501960872 -1.219627662548161 0  0.3037252248790797 -1.21253906649318 0  0.3333909468436227 -1.2047200822443 0  0.3628558465680776 -1.196175419665261 0  0.3921021754986139 -1.186910225741296 0  0.4211123167402745 -1.176930081478776 0  0.4498687956687345 -1.166240998543424 0  0.4783542904563625 -1.154849415639108 0  0.5065516425062375 -1.142762194629413 0  0.5344438667878527 -1.129986616404304 0  0.5620141620682583 -1.116530376494394 0  0.589245921032497 -1.102401580435444 0  0.6161227402872298 -1.087608738885889 0  0.6426284302415269 -1.07216076250034 0  0.6687470248588712 -1.056066956562134 0  0.6944627912745023 -1.039337015378182 0  0.7197602392723061 -1.02198101643948 0  0.7446241306155411 -1.004009414350806 0  0.7690394882257838 -0.9854330345332576 0  0.792991605204557 -0.9662630667034211 0  0.8164660536922209 -0.9465110581331058 0  0.8394486935587729 -0.9261889066936989 0  0.8619256809213336 -0.9053088536893338 0  0.8838834764831842 -0.8838834764831847 0  0.9053088536893333 -0.8619256809213339 0  0.9261889066936986 -0.8394486935587733 0  0.9465110581331053 -0.8164660536922214 0  0.9662630667034209 -0.7929916052045574 0  0.9854330345332574 -0.7690394882257843 0  1.004009414350806 -0.7446241306155416 0  1.02198101643948 -0.7197602392723066 0  1.039337015378182 -0.6944627912745027 0  1.056066956562134 -0.6687470248588716 0  1.07216076250034 -0.6426284302415274 0  1.087608738885889 -0.6161227402872304 0  1.102401580435443 -0.5892459210324974 0  1.116530376494394 -0.5620141620682587 0  1.129986616404304 -0.5344438667878532 0  1.142762194629413 -0.50655164250623
[...]
<PointData  Scalars="f_927858"> 
<DataArray  type="Float64"  Name="f_927858"  format="ascii">-1.6548012649868790e-03  -1.6347640895523984e-03  -1.6711300792723184e-03  -1.6806420388495843e-03  -1.6431968545459826e-03  -1.6235587612002658e-03  -1.6134464770086920e-03  -1.5961911359063160e-03  -1.5121648504609916e-03  -1.4456811701565025e-03  -1.4383656400889983e-03  -1.3977518568661299e-03  -1.3564763980088532e-03  -1.3478893325328594e-03  -1.3233614989042956e-03  -1.1960100678620421e-03  -1.1529068909733725e-03  -1.0993463889248890e-03  -1.0542376454535823e-03  -1.0021379713370064e-03  -9.0328545379993132e-04  -8.1187121481381607e-04  -7.4976778121867138e-04  -6.5350733534460755e-04  -5.8809296961825051e-04  -5.1064942116232318e-04  -4.4248270253413363e-04  -3.9029556439116529e-04  -3.2468574102746629e-04  -2.1005047186927237e-04  -1.3437032606423169e-04  -6.2419452870517400e-05  2.6040142402076243e-05  9.1534001309523096e-05  1.7248917559415587e-04  2.5718248524317697e-04  3.1092534645351245e-04  4.2226878377782606e-04  4.6328148357256053e-04  5.3452786151712503e-04  6.3586395395744827e-04  6.8860666305040324e-04  7.3354843848976706e-04  8.1648093349812674e-04  9.0469934013833332e-04  9.4081751268799974e-04  1.0051910434563901e-03  1.0983821806527178e-03  1.1361220981960811e-03  1.1200002306926238e-03  1.1379118308149127e-03  1.2148805332252138e-03  1.2741841283834216e-03  1.3680039705320280e-03  1.3770633842184726e-03  1.3481868775720906e-03  1.4576499900467027e-03  1.4632672618640635e-03  1.4905778611202650e-03  1.4957988503186725e-03  1.4109419836260152e-03  1.3463545246249244e-03  1.3254867723745667e-03  1.2303427489293447e-03  1.2333802211560636e-03  1.2763986681090462e-03  1.2964786776806729e-03  1.2408371045069379e-03  1.0936978843894432e-03  1.1446489526249970e-03  1.1946872529443253e-03  1.1337430287993396e-03  9.8488829787568262e-04  8.7729963090570529e-04  8.8419086655533723e-04  3.1476759747473633e-04  4.8023687273188604e-04  4.4276134653214284e-04  -1.4440950008012870e-05  -4.8524263130233292e-05  2.7496128702964923e-04  -7.7115998190171629e-05  -2.2830544182996868e-04  -1.4578795426572853e-05  -3.5276181667002663e-04  -4.5526687893630282e-04  -3.0212612906673571e-04  -2.6426247816350312e-04  -2.2450640673287603e-04  -3.7007046007782606e-04  -2.5500195630660870e-04  -3.5921695104583831e-04  4.1549574147287143e-04  6.2218031479715244e-05  6.7967778542096509e-04  2.8883519774797067e-05  1.8608779491561197e-04  2.1208733185146812e-04  -2.0587214046641550e-04  -5.4771039450699009e-04  -9.2662578746685966e-05  3.6395110286529029e-04  8.8847128647106090e-04  1.4559371427390444e-03  2.1157906829746497e-03  2.7871904133266669e-03  3.5343065693800007e-03  4.3634550111162672e-03  5.1707640908092451e-03  6.0455128469516358e-03  6.9818898998540426e-03  7.9035645350945087e-03  8.9194537798332196e-03  9.5991319886629036e-03  1.0288913795147439e-02  1.1026037540490303e-02  1.1824212290645416e-02  1.2552905177693318e-02  1.3305463726807748e-02  1.4064851629966773e-02  1.4802088435891035e-02  1.5551261034426127e-02  1.6170893259510634e-02  1.6716650926119857e-02  1.7142788407508443e-02  1.7469648118523994e-02  1.7782730808918353e-02  1.7949887810707228e-02  1.8019690219692457e-02  1.7948916512036117e-02  1.7785366493033767e-02  1.7480566086042440e-02  1.7170331048807688e-02  1.6760347292027043e-02  1.6230519987505260e-02  1.5631009895857851e-02  1.4905142062709053e-02  1.4205059993896305e-02  1.3472092973364751e-02  1.2685332351607742e-02  1.1886025669000329e-02  1.1025798404259206e-02  1.0290005417635542e-02  9.6125587233160791e-03  8.4219991021871159e-03  7.6733424845292254e-03  6.5758380506176625e-03  5.8660918322460277e-03  4.9210413805697729e-03  4.1146543902728684e-03  3.3542681748767360e-03  2.6194243079284453e-03  1.9169353590291229e-03  1.3032856292420536e-03  7.1909185056143838e-04  1.9522199272740845e-04  -2.3841953996933161e-04  -5.9525373853179617e-04  -4.3970676500039067e-04  2.7378866933435396e-04  1.4965151896768124e-04  3.8141527580268209e-04  5.0918288451736132e-05  4.4499533993627006e-04  -2.9057158599257412e-04  -1.3889737627111569e-04  -4.1227382687009242e-04  -1.8527854606938240e-04  -3.5923876593644595e-04  -2.7789811269672435e-04  -4.5618636897426718e-04  -4.3458943787331712e-04  -7.0175730430168320e-05  -3.4592445491772773e-04  -2.2526444247327878e-04  1.9915367154176231e-04  -1.0630159426392118e-04  -1.1994140268972288e-04  2.8109498283644229e-04  3.3072330705188256e-04  1.5448668611770474e-04  3.6283280489071202e-04  6.9325712532347530e-04  4.3234129280838836e-04  9.8232618085249894e-04  1.0602290556264229e-03  1.0330088275181740e-03  1.2134947878465984e-03  1.2685088028364425e-03  1.2597201744437548e-03  1.2244451919667257e-03  1.3212025955561752e-03  1.3811142218155389e-03  1.3312297797815360e-03  1.4078218093792206e-03  1.4341235820299113e-03  1.4933093713882090e-03  1.4586189042487378e-03  1.4117761441949342e-03  1.3725987813623980e-03  1.3847069740832020e-03  1.4772376789934513e-03  1.4875320307981600e-03  1.3936031006290134e-03  1.3508517678285823e-03  1.3500296020971993e-03  1.2587878160979353e-03  1.2575941238873820e-03  1.2466691405102442e-03  1.1266085133773017e-03  1.0274301474788260e-03  1.0214426236665043e-03  9.7797594179439406e-04  8.8253256058575512e-04  8.0587909357050466e-04  7.4132308922994603e-04  6.3072912211020130e-04  5.7956457128297445e-04  5.1898635107931138e-04  4.0376563301233086e-04  3.5393652313020924e-04  2.7538035525162628e-04  1.8424165076713631e-04  1.0726861365772513e-04  1.5530249752869226e-05  -7.6702215718537419e-05  -1.4802705746741644e-04  -2.4691809113282221e-04  -3.2604051731034836e-04  -4.1507581086661050e-04  -4.9245127676518844e-04  -5.7700682172362732e-04  -6.3708022367279789e-04  -6.9625369627484082e-04  -7.6592591602325040e-04  -8.1947147999645860e-04  -9.2206324662561943e-04  -9.5682144357550983e-04  -1.0177302054182422e-03  -1.0964778083845492e-03  -1.1711060377814922e-03  -1.2039220914783566e-03  -1.2890690229020064e-03  -1.3768193882674005e-03  -1.4056785663455686e-03  -1.3982564811062250e-03  -1.3998969392790515e-03  -1.4403931940373937e-03  -1.4717002678250608e-03  -1.5398802552343178e-03  -1.5714331150162406e-03  -1.5539394426411057e-03  -1.6293227227100241e-03  -1.6863946789685991e-03  -1.6919996298724585e-03  -1.6881698812949827e-03  6.3761095925452659e-03  6.3413820107853435e-03  6.3034069665394406e-03  6.2957445591173807e-03  6.2487646665861409e-03  6.1659242248931715e-03  6.1033896774783207e-03  6.0073565511291381e-03  5.9087348742797811e-03  5.7841094966201850e-03  5.6739214107342749e-03  5.5326499563106910e-03  5.3747422425221448e-03  5.2229756523293697e-03  5.0476233743891033e-03  4.8626162761121012e-03  4.6656900350136752e-03  4.4717800863939595e-03  4.2530795486226663e-03  4.0112778611996244e-03  3.7605928642902115e-03  3.5113462650963561e-03  3.2312538112045678e-03  2.9477061292065938e-03  2.6623018672454757e-03  2.3846943071452746e-03  2.1001026664399687e-03  1.8043314124579020e-03  1.5025678087012143e-03  1.1851834943367840e-03  8.6524964365986131e-04  5.5130189066966001e-04  2.2698321113773042e-04  -8.4708755841377201e-05  -4.2481291028814911e-04  -7.6819317838215683e-04  -1.0824842384370606e-03  -1.4214047143270587e-03  -1.7596045919208510e-03  -2.0843184032246428e-03  -2.4253943563747344e-03  -2.7272922038018878e-03  -3.0621714733479097e-03  -3.3774506370134573e-03  -3.7187731255429735e-03  -4.0619927486376297e-03  -4.3694676662186559e-03  -4.6746629618956521e-03  -4.9948038962748997e-03  -5.2720709230705083e-03  -5.5736114490939756e-03  -5.8471393787683859e-03  -6.1356521754271235e-03  -6.4149606242120188e-03  -6.6935957604161217e-03  -7.0001978385869322e-03  -7.2859799607406951e-03  -7.5236601963660612e-03  -7.7476487388407388e-03  -7.9556334386487355e-03  -8.1372351393787512e-03  -8.2825370240777307e-03  -8.4265999041348520e-03  -8.5469498534437513e-03  -8.6398172523974269e-03  -8.6983220809047548e-03  -8.7586244224816638e-03  -8.7764718201817169e-03  -8.7249242630053070e-03  -8.7004415229357621e-03  -8.7116708318911908e-03  -8.6665865330391289e-03  -8.6341604129624074e-03  -8.5440732974252677e-03  -8.4662339334715588e-03  -8.3419815089911149e-03  -8.1810598802802958e-03  -8.0035651909647187e-03  -7.8137313367505137e-03  -7.5896751873243675e-03  -7.3339744190599986e-03  -7.0791180599610046e-03  -6.7824033152845470e-03  -6.4713034765254375e-03  -6.1453522299468729e-03  -5.7549207896319997e-03  -5.3489198751789924e-03  -4.8880191320758411e-03  -4.4372157470987366e-03  -3.9970431430730704e-03  -3.4968306382895191e-03  -2.9962729023652159e-03  -2.4899160512811629e-03  -1.9753545911149559e-03  -1.4788696193864981e-03  -9.7742636523223420e-04  -4.3716063039793049e-04  5.0032590126678682e-05  5.9391135941951349e-04  1.1599740437460890e-03  1.7119713256358031e-03  2.2929993974673156e-03  2.8603319775473814e-03  3.4126831112103865e-03  4.0469442398097643e-03  4.7095492853645206e-03  5.3891417200247222e-03  6.0350762130775698e-03  6.7046804103441460e-03  7.4571695754928717e-03  8.0871596312297820e-03  8.8649088168906275e-03  9.5756666342749538e-03  1.0194802994336493e-02  1.0719704750664088e-02  1.1363656356102952e-02  1.1989574858829810e-02  1.2612910603146022e-02  1.3212598933084858e-02  1.3773314271815688e-02  1.4349815585980818e-02  1.4830055544022886e-02  1.5296126098684651e-02  1.5712423222885543e-02  1.6078598781752679e-02  1.6373286525362327e-02  1.6604161588340060e-02  1.6789764161640103e-02  1.6906498050188592e-02  1.6937979703831475e-02  1.6918302878495779e-02  1.6818139657832323e-02  1.6635048615444188e-02  1.6404924020446132e-02  1.6104274826027623e-02  1.5724718039039517e-02  1.5295436599178378e-02  1.4811141937558782e-02  1.4311736658853122e-02  1.3703474968886051e-02  1.3096689909188388e-02  1.2338491056339581e-02  1.1824343943279698e-02  1.1259014469740479e-02  1.0680309042844586e-02  1.0118430740010162e-02  9.5260876873325909e-03  9.1514582944341397e-03  8.3462143592368011e-03  7.5417189834342535e-03  6.8474405655607039e-03  6.1063204872541608e-03  5.4450110592833044e-03  4.7378494178585643e-03  4.0460569110199931e-03  3.4380648472294006e-03  2.8665744535792820e-03  2.2557072739438876e-03  1.6722752250461228e-03  1.0948293308829079e-03  5.4046892799024216e-04  1.3247573056399744e-05  -5.1997014060988411e-04  -1.0237545396306544e-03  -1.5488389793799425e-03  -2.0369247346910171e-03  -2.5380824295008239e-03  -3.0547959256654123e-03  -3.5642903331696008e-03  -3.9974523186785309e-03  -4.4702455015939516e-03  -4.9289084120983529e-03  -5.3864220955121538e-03  -5.7609108474131572e-03  -6.1070966936013207e-03  -6.4518208670346624e-03  -6.8011683623390362e-03  -7.1336063476580410e-03  -7.3962958960569090e-03  -7.6042675282133650e-03  -7.8764144421845858e-03  -8.0872356026457162e-03  -8.2512925499576839e-03  -8.3969180727002622e-03  -8.5404451327897504e-03  -8.6420047348833833e-03  -8.7177759503942621e-03  -8.7770113628559288e-03  -8.8557266869988965e-03  -8.8890926451035204e-03  -8.9383879755291201e-03  -8.9667803995696141e-03  -8.9181173073897106e-03  -8.8607626043427888e-03  -8.7492290964543192e-03  -8.6187393742899049e-03  -8.5177234918454598e-03  -8.3679170279421441e-03  -8.1746410559180860e-03  -7.9658042002994471e-03  -7.7754956535045850e-03  -7.5606809707005045e-03  -7.3367323343025816e-03  -7.0990643734735901e-03  -6.8771376690910518e-03  -6.6223380330195777e-03  -6.3176662695557575e-03  -6.0336283801034661e-03  -5.7358863413677543e-03  -5.4561999032863703e-03  -5.1418902745617948e-03  -4.8287095154190655e-03  -4.4851528984591552e-03  -4.1642454866221163e-03  -3.8378036758951821e-03  -3.5112042646503836e-03  -3.1544141720583896e-03  -2.7899532235567976e-03  -2.4714461430071456e-03  -2.1230142005947959e-03  -1.8019687609863693e-03  -1.4607709034508893e-03  -1.1095218435789808e-03  -7.5151603296537775e-04  -4.1474200901598014e-04  -6.6072886987050079e-05  3.0157802341935385e-04  6.1799375999377262e-04  9.2826190716286490e-04  1.2485843045379782e-03  1.5324162625691082e-03  1.8374450364538415e-03  2.0965287055613882e-03  2.4067335107103988e-03  2.7291393791269037e-03  3.0205615930833825e-03  3.2896600427298060e-03  3.5517892041054340e-03  3.8152966001223361e-03  4.0422615277696892e-03  4.2802130515799570e-03  4.4923750401581241e-03  4.7312814217314930e-03  4.9671403868724682e-03  5.1655729118982655e-03  5.3403930397293809e-03  5.5265892027505231e-03  5.6873433160827998e-03  5.8039347701145851e-03  5.9438922096704183e-03  6.0462537459266552e-03  6.1563032182263156e-03  6.2454107038134058e-03  6.2948392845276974e-03  6.3560097354995460e-03  6.3651677605220747e-03  1.0136273092615101e-03  9.3598577958610820e-04  9.6672616059337258e-04  3.7497653021666935e-04  3.7876891844485942e-04  3.6764200216266594e-04  2.4615395980239293e-04  -5.3794268429396170e-05  -1.0412308317297955e-04  -4.2204850904872804e-04  -4.9444405334272479e-04  -6.6756891599951615e-04  -6.5805477622172647e-04  -8.5210098374541060e-04  -9.5092597157239245e-04  -8.8801549760460848e-04  -1.0988216428219962e-03  -1.6331360604905287e-03  -9.1018200009480212e-05  -2.0563833629706472e-03  -8.5539064369014752e-05  -1.1022003083681384e-04  -4.4343359482119404e-05  4.8119569091470025e-03  4.1254040297859914e-03  4.8186546865232041e-03  4.1992242033454877e-03  -2.3878115515977216e-03  -4.3247276908350112e-05  -1.1153173128569489e-05  3.1616190510211943e-03  -2.9930329998456152e-03  2.7025571939796778e-03  6.7801717148814099e-05  5.0171650279907509e-05  1.5359543610384127e-03  1.1657277609635744e-03  -4.4661067026033314e-04  -3.2006501985066445e-03  -4.2069752296407031e-04  -3.8566901462170993e-04  5.0459191055621817e-03  7.9238469087426186e-05  1.0068361830033622e-04  -2.8213136569336158e-04  -7.1751464591092602e-04  -9.7827862972140996e-04  -3.3801973371273210e-03  -2.5696692887436850e-04  -9.4585843079678583e-05  -9.3565455802412635e-05  -3.7064797531746021e-03  9.4724668083377733e-05  1.1872849017663491e-04  3.5576334434775959e-03  4.7307320107959384e-03  -3.9137085377938564e-03  9.8150296543247830e-05  1.1088357654194880e-04  2.2285067317907520e-04  -2.3876836386880563e-03  4.8461806512448214e-03  3.9093321039205290e-03  -3.1188392975267328e-03  2.4002693971919950e-03  4.0163222940349839e-04  9.6284200801176713e-05  6.8101076222541548e-05  -4.5954405524225366e-03  2.2364388646166594e-04  -4.8180156795925803e-03  2.4141387532893065e-03  -4.0214414272942778e-03  -4.7847823795202681e-03  2.2709738583102224e-04  -1.9492921399541206e-03  -5.5940718006439920e-03  6.0659677666217559e-04  1.0280342542283189e-03  3.0254532166585236e-04  -5.2126786771422550e-05  -2.0439749253068869e-04  -3.4045328143886056e-03  3.2239835861645896e-04  8.5814860941972994e-04  -5.7508912453576380e-03  -6.0371331021806416e-03  -5.7928030313209198e-03  2.9936974188632376e-04  -1.2430433351532782e-04  -7.9807426273933091e-04  3.3528512147809294e-04  -3.9030170802147024e-03  7.0041919685405517e-04  -5.9908186021120956e-03  3.1503844408326779e-04  2.8386016614390531e-04  1.7145253529398324e-04  -9.8448028693794374e-05  1.6511562213557832e-05  -6.2683515112993042e-03  -8.2184643923442291e-04  -6.6957530482904346e-04  -7.9962130247618443e-04  -7.0591303488924586e-03  -5.5582116556893992e-04  -7.6212131679198397e-04  -6.8681528044926300e-04  -7.1654708750634013e-03  -4.5487064200419461e-04  -6.1962895054879115e-04  3.1047213524175010e-03  -7.6959766713860175e-04  -5.7523353878177214e-03  -4.7263990678087456e-03  1.5187968809919207e-04  2.9607410924150949e-03  1.7841222712611558e-04  -3.0646250151876209e-04  -6.5014289858703221e-03  -7.9246042039944706e-03  -2.7182851372530362e-04  3.2926993999453195e-04  4.9298288373238342e-03  -6.5877671491264766e-04  -5.5476530624416426e-03  -4.3536708384233451e-03  6.7129503798231405e-04  9.7165517148374616e-05  -1.3834699154281698e-04  5.6149108526105237e-03  -1.4468089925206125e-04  4.3357075020389563e-04  1.4924114964051942e-04  5.7297275750376308e-03  -7.9346450150337457e-03  5.5591599981625033e-03  5.4342319916582168e-03  -3.6434678465357274e-03  -2.6813399918962719e-04  -3.1549661676281559e-04  -4.1318445868224706e-04  3.7048755418353598e-03  2.2818337744751587e-05  5.1940166129115185e-03  4.6515406227032848e-03  2.9735649400639127e-04  2.1497773341116943e-03  5.9826696684920375e-04  -5.7695516246484104e-04  1.7372578135097595e-04  -1.2754670615261552e-04  2.1834008469034428e-04  -4.2939527211806387e-04  2.5625712915395307e-04  1.5456000470466036e-04  4.5225274456991565e-03  2.1391873448394101e-04  3.1859285157196285e-05  -1.1565691427341562e-04  2.8945517390242521e-04  6.3627869444916554e-05  -4.4728908828472951e-05  -6.6683365922783708e-03  1.3844720658111613e-03  2.7859193414804992e-03  3.9623363351152883e-03  3.4758603344293014e-03  2.1434175543734048e-04  3.3162250492635133e-03  2.4007730368628588e-03  3.8202384361649486e-04  -6.0610571974541194e-04  9.4462528230217615e-05  -3.3332762588064811e-03  -8.1156916802651944e-03  2.1130475388335220e-04  2.8945131083460532e-04  2.1976548608059750e-03  -6.2691339096505229e-06  2.1736361590515507e-04  3.4161932405590248e-04  5.3083191621215782e-05  1.7532828559908046e-03  2.3813430928430676e-03  1.8298773444247842e-04  1.2607778001950624e-03  1.4543059893831933e-03  2.0631879425908710e-03  -8.0692651466817422e-03  -2.8810058900916504e-03  -2.5001395818460551e-05  2.9769334058578535e-04  3.1375400478144818e-03  3.1799738917539368e-03  -1.8442320159668693e-04  -1.0120031524665589e-03  6.8156982766072363e-04  2.9856636476130716e-03  1.1705888083120002e-05  -7.4770522753885647e-05  2.0848451745874024e-03  3.7422383379328759e-04  -2.3537755996110993e-03  -8.2662504624782035e-04  2.1702669029764004e-03  2.8711017014149891e-04  1.8491884300962103e-03  -8.5546314994702311e-04  5.5322805521697477e-05  -8.2125073350280114e-03  -7.5670187307158793e-04  4.2744927668871208e-04  5.4809810950562398e-04  1.5215072154800850e-04  -2.5532850109062435e-05  -1.0627771849760800e-03  1.3074540417393279e-03  1.5574681499197523e-04  -1.8607535957644596e-03  9.8092821984280612e-04  3.9832423803807718e-04  5.6920907718969408e-04  5.1179062822116357e-05  -9.4992590155851969e-04  -1.0946422376363306e-03  -7.3235270260884494e-04  5.2908114146570442e-03  2.5685524228798852e-03  -7.9991012162525191e-03  -4.2572836277690287e-06  -1.8810015358930020e-04  5.5881169257905039e-03  -8.9086733055558285e-04  5.7219357920878806e-04  3.6383292703053588e-05  -6.6519635941541321e-05  -7.6386488883830944e-05  -1.4141007578222212e-04  -1.4329111719447558e-03  -7.7765030872944648e-03  -7.4540942080555982e-04  3.0123081027934114e-03  -4.8007292652734362e-04  5.8977993259243825e-03  4.2683301324913867e-03  -7.9949473670057648e-03  4.3033670126457107e-04  -7.7481938915814775e-03  -3.3939268292308412e-04  -2.1116285494662658e-03  -1.4104835907917052e-03  -9.9055193517185282e-04  2.9085288752444061e-05  -6.6316322230557492e-04  -4.2152434134210714e-04  4.5400219075379418e-05  -4.2525632778169572e-04  -6.4841812196082609e-04  -8.3982936418892720e-03  6.5977780123048317e-04  6.2837886039335234e-04  6.7858663877551329e-04  6.1817686689546265e-04  -5.9874752802831102e-04  3.0598916175682750e-04  -4.0030659772806827e-03  -1.2708512565230987e-03  -7.6610711611213933e-03  -2.4224831282075123e-03  -1.7363146072104474e-03  -1.5810741201024838e-03  -7.0047578292309126e-04  -6.3634962869192114e-04  -7.4614962634679339e-03  9.3398481403468689e-04  -2.4674325476183806e-03  7.2245847888300095e-05  -7.8103239381490056e-03  -1.6404212190783424e-04  -1.0789024412133985e-04  -2.8316950853956170e-04  1.7681784155147942e-04  -8.0403039564359534e-03  -3.6743881587487982e-03  -3.0248134788583115e-04  -6.3499660888162435e-04  -1.2952866090430932e-04  -9.1113818639532417e-05  -9.1200066174964533e-06  -2.0994662225623417e-03  -7.8618931522709255e-04  -4.3091049398205688e-03  -9.8956924026652481e-04  -2.8333510144928496e-03  9.1810559774569556e-05  -4.2584431045453626e-03  6.2048185696291815e-04  4.3304205035552112e-03  5.2827285765539222e-04  -2.8100682317929800e-03  -4.03256445089