<?xml version="1.0"?>
<VTKFile type="UnstructuredGrid"  version="0.1"  >
<UnstructuredGrid>
<Piece  NumberOfPoints="3915" NumberOfCells="6507">
<Points>
<DataArray  type="Float64"  NumberOfComponents="3"  format="ascii">1.25 0 0  1.249623523370255 0.03067653565364036 0  1.248494320256466 0.06133459290927252 0  1.246613070848363 0.09195570449958429 0  1.243980908340246 0.1225214254119508 0  1.240599418248387 0.1530133439990203 0  1.236470637455976 0.1834130930692022 0  1.231597052986177 0.2137023609503765 0  1.225981600504038 0.2438629025201603 0  1.219627662548161 0.2738765501960873 0  1.21253906649318 0.3037252248790798 0  1.2047200822443 0.333390946843623 0  1.196175419665261 0.3628558465680779 0  1.186910225741296 0.3921021754986144 0  1.176930081478776 0.4211123167402751 0  1.166240998543424 0.4498687956687352 0  1.154849415639108 0.4783542904563622 0  1.142762194629413 0.5065516425062373 0  1.129986616404304 0.5344438667878526 0  1.116530376494394 0.5620141620682582 0  1.102401580435444 0.5892459210324971 0  1.087608738885889 0.61612274028723 0  1.07216076250034 0.642628430241527 0  1.056066956562134 0.6687470248588714 0  1.039337015378182 0.6944627912745027 0  1.02198101643948 0.7197602392723067 0  1.004009414350806 0.7446241306155417 0  0.9854330345332579 0.7690394882257835 0  0.9662630667034212 0.7929916052045569 0  0.9465110581331058 0.8164660536922209 0  0.9261889066936989 0.8394486935587729 0  0.9053088536893338 0.8619256809213336 0  0.8838834764831844 0.8838834764831843 0  0.8619256809213337 0.9053088536893337 0  0.8394486935587729 0.9261889066936989 0  0.8164660536922209 0.9465110581331055 0  0.7929916052045569 0.9662630667034212 0  0.7690394882257835 0.9854330345332578 0  0.7446241306155419 1.004009414350806 0  0.7197602392723067 1.02198101643948 0  0.6944627912745028 1.039337015378182 0  0.6687470248588716 1.056066956562134 0  0.642628430241527 1.07216076250034 0  0.6161227402872301 1.087608738885889 0  0.5892459210324973 1.102401580435444 0  0.5620141620682583 1.116530376494394 0  0.5344438667878527 1.129986616404304 0  0.5065516425062373 1.142762194629413 0  0.4783542904563623 1.154849415639108 0  0.4498687956687353 1.166240998543424 0  0.4211123167402751 1.176930081478776 0  0.3921021754986145 1.186910225741296 0  0.3628558465680779 1.196175419665261 0  0.333390946843623 1.2047200822443 0  0.30372522487908 1.21253906649318 0  0.2738765501960872 1.219627662548161 0  0.2438629025201604 1.225981600504038 0  0.2137023609503767 1.231597052986177 0  0.1834130930692022 1.236470637455976 0  0.1530133439990203 1.240599418248387 0  0.122521425411951 1.243980908340246 0  0.09195570449958432 1.246613070848363 0  0.06133459290927266 1.248494320256466 0  0.03067653565364033 1.249623523370255 0  7.654042494670958e-17 1.25 0  -0.03067653565364018 1.249623523370255 0  -0.06133459290927251 1.248494320256466 0  -0.09195570449958416 1.246613070848363 0  -0.1225214254119508 1.243980908340246 0  -0.1530133439990202 1.240599418248387 0  -0.1834130930692021 1.236470637455976 0  -0.2137023609503766 1.231597052986177 0  -0.2438629025201602 1.225981600504038 0  -0.2738765501960871 1.219627662548161 0  -0.3037252248790798 1.21253906649318 0  -0.3333909468436229 1.2047200822443 0  -0.3628558465680777 1.196175419665261 0  -0.3921021754986143 1.186910225741296 0  -0.4211123167402749 1.176930081478776 0  -0.4498687956687352 1.166240998543424 0  -0.4783542904563621 1.154849415639108 0  -0.5065516425062372 1.142762194629413 0  -0.5344438667878524 1.129986616404304 0  -0.5620141620682584 1.116530376494394 0  -0.5892459210324972 1.102401580435444 0  -0.61612274028723 1.087608738885889 0  -0.642628430241527 1.07216076250034 0  -0.6687470248588713 1.056066956562134 0  -0.6944627912745025 1.039337015378182 0  -0.7197602392723067 1.02198101643948 0  -0.7446241306155417 1.004009414350806 0  -0.7690394882257834 0.9854330345332579 0  -0.7929916052045567 0.9662630667034213 0  -0.8164660536922207 0.9465110581331059 0  -0.8394486935587731 0.9261889066936988 0  -0.8619256809213337 0.9053088536893337 0  -0.8838834764831843 0.8838834764831844 0  -0.9053088536893334 0.8619256809213338 0  -0.9261889066936986 0.8394486935587732 0  -0.9465110581331058 0.8164660536922208 0  -0.9662630667034212 0.7929916052045569 0  -0.9854330345332578 0.7690394882257836 0  -1.004009414350806 0.7446241306155419 0  -1.02198101643948 0.7197602392723068 0  -1.039337015378182 0.6944627912745027 0  -1.056066956562134 0.6687470248588714 0  -1.07216076250034 0.6426284302415273 0  -1.087608738885889 0.6161227402872302 0  -1.102401580435444 0.5892459210324973 0  -1.116530376494394 0.5620141620682586 0  -1.129986616404304 0.5344438667878525 0  -1.142762194629413 0.5065516425062374 0  -1.154849415639108 0.4783542904563624 0  -1.166240998543424 0.4498687956687354 0  -1.176930081478776 0.4211123167402754 0  -1.186910225741296 0.3921021754986143 0  -1.196175419665261 0.362855846568078 0  -1.2047200822443 0.3333909468436231 0  -1.21253906649318 0.3037252248790801 0  -1.219627662548161 0.2738765501960876 0  -1.225981600504038 0.2438629025201608 0  -1.231597052986177 0.2137023609503765 0  -1.236470637455976 0.1834130930692023 0  -1.240599418248387 0.1530133439990204 0  -1.243980908340246 0.122521425411951 0  -1.246613070848363 0.09195570449958466 0  -1.248494320256466 0.06133459290927246 0  -1.249623523370255 0.03067653565364041 0  -1.25 1.530808498934192e-16 0  -1.249623523370255 -0.0306765356536401 0  -1.248494320256466 -0.06133459290927215 0  -1.246613070848363 -0.09195570449958437 0  -1.243980908340246 -0.1225214254119507 0  -1.240599418248387 -0.1530133439990201 0  -1.236470637455976 -0.183413093069202 0  -1.231597052986177 -0.2137023609503762 0  -1.225981600504038 -0.2438629025201605 0  -1.219627662548161 -0.2738765501960873 0  -1.21253906649318 -0.3037252248790798 0  -1.2047200822443 -0.3333909468436228 0  -1.196175419665261 -0.3628558465680776 0  -1.186910225741296 -0.392102175498614 0  -1.176930081478776 -0.4211123167402752 0  -1.166240998543424 -0.4498687956687352 0  -1.154849415639108 -0.4783542904563621 0  -1.142762194629413 -0.5065516425062371 0  -1.129986616404304 -0.5344438667878523 0  -1.116530376494394 -0.5620141620682583 0  -1.102401580435444 -0.5892459210324971 0  -1.087608738885889 -0.6161227402872299 0  -1.07216076250034 -0.6426284302415269 0  -1.056066956562134 -0.6687470248588712 0  -1.039337015378182 -0.6944627912745025 0  -1.02198101643948 -0.7197602392723067 0  -1.004009414350806 -0.7446241306155416 0  -0.9854330345332579 -0.7690394882257834 0  -0.9662630667034213 -0.7929916052045566 0  -0.946511058133106 -0.8164660536922207 0  -0.9261889066936989 -0.8394486935587731 0  -0.9053088536893338 -0.8619256809213336 0  -0.8838834764831847 -0.8838834764831843 0  -0.8619256809213338 -0.9053088536893334 0  -0.8394486935587733 -0.9261889066936986 0  -0.8164660536922214 -0.9465110581331053 0  -0.7929916052045574 -0.9662630667034209 0  -0.7690394882257841 -0.9854330345332574 0  -0.7446241306155414 -1.004009414350806 0  -0.7197602392723066 -1.02198101643948 0  -0.6944627912745027 -1.039337015378182 0  -0.6687470248588716 -1.056066956562134 0  -0.6426284302415273 -1.07216076250034 0  -0.6161227402872302 -1.087608738885889 0  -0.5892459210324973 -1.102401580435444 0  -0.5620141620682586 -1.116530376494394 0  -0.5344438667878531 -1.129986616404304 0  -0.506551642506238 -1.142762194629413 0  -0.4783542904563629 -1.154849415639108 0  -0.4498687956687349 -1.166240998543424 0  -0.4211123167402749 -1.176930081478776 0  -0.3921021754986143 -1.186910225741296 0  -0.3628558465680781 -1.196175419665261 0  -0.3333909468436231 -1.2047200822443 0  -0.3037252248790802 -1.21253906649318 0  -0.2738765501960876 -1.219627662548161 0  -0.2438629025201608 -1.225981600504038 0  -0.2137023609503771 -1.231597052986176 0  -0.1834130930692029 -1.236470637455976 0  -0.1530133439990199 -1.240599418248387 0  -0.1225214254119506 -1.243980908340246 0  -0.09195570449958419 -1.246613070848363 0  -0.06133459290927254 -1.248494320256466 0  -0.03067653565364049 -1.249623523370255 0  -2.296212748401287e-16 -1.25 0  0.03067653565364003 -1.249623523370255 0  0.06133459290927207 -1.248494320256466 0  0.09195570449958373 -1.246613070848363 0  0.1225214254119501 -1.243980908340246 0  0.1530133439990195 -1.240599418248387 0  0.1834130930692024 -1.236470637455976 0  0.2137023609503766 -1.231597052986177 0  0.2438629025201604 -1.225981600504038 0  0.2738765501960872 -1.219627662548161 0  0.3037252248790797 -1.21253906649318 0  0.3333909468436227 -1.2047200822443 0  0.3628558465680776 -1.196175419665261 0  0.3921021754986139 -1.186910225741296 0  0.4211123167402745 -1.176930081478776 0  0.4498687956687345 -1.166240998543424 0  0.4783542904563625 -1.154849415639108 0  0.5065516425062375 -1.142762194629413 0  0.5344438667878527 -1.129986616404304 0  0.5620141620682583 -1.116530376494394 0  0.589245921032497 -1.102401580435444 0  0.6161227402872298 -1.087608738885889 0  0.6426284302415269 -1.07216076250034 0  0.6687470248588712 -1.056066956562134 0  0.6944627912745023 -1.039337015378182 0  0.7197602392723061 -1.02198101643948 0  0.7446241306155411 -1.004009414350806 0  0.7690394882257838 -0.9854330345332576 0  0.792991605204557 -0.9662630667034211 0  0.8164660536922209 -0.9465110581331058 0  0.8394486935587729 -0.9261889066936989 0  0.8619256809213336 -0.9053088536893338 0  0.8838834764831842 -0.8838834764831847 0  0.9053088536893333 -0.8619256809213339 0  0.9261889066936986 -0.8394486935587733 0  0.9465110581331053 -0.8164660536922214 0  0.9662630667034209 -0.7929916052045574 0  0.9854330345332574 -0.7690394882257843 0  1.004009414350806 -0.7446241306155416 0  1.02198101643948 -0.7197602392723066 0  1.039337015378182 -0.6944627912745027 0  1.056066956562134 -0.6687470248588716 0  1.07216076250034 -0.6426284302415274 0  1.087608738885889 -0.6161227402872304 0  1.102401580435443 -0.5892459210324974 0  1.116530376494394 -0.5620141620682587 0  1.129986616404304 -0.5344438667878532 0  1.142762194629413 -0.50655164250623
[...]
<PointData  Scalars="f_927828"> 
<DataArray  type="Float64"  Name="f_927828"  format="ascii">1.8047863674360192e+00  2.4314067960223360e+00  3.0508425068399530e+00  3.6622267116810492e+00  4.2820089689094996e+00  4.8975669388147249e+00  5.5080081212976806e+00  6.1290205850725439e+00  6.7341336916289780e+00  7.3510114776929463e+00  7.9734900976862582e+00  8.5723140443900334e+00  9.1970829891931807e+00  9.8079887853476677e+00  1.0427046257873878e+01  1.1033395112398894e+01  1.1669168074897401e+01  1.2272098848210815e+01  1.2904528661615075e+01  1.3523519575617348e+01  1.4144008994140451e+01  1.4778262176470431e+01  1.5408818522308634e+01  1.6033070672639791e+01  1.6680884812645733e+01  1.7313844183323923e+01  1.7961385526416919e+01  1.8603382080252562e+01  1.9263927752154348e+01  1.9915187237056085e+01  2.0584011724187928e+01  2.1256018490530600e+01  2.1923101170977461e+01  2.2610960045040944e+01  2.3310136090397410e+01  2.3984967328798820e+01  2.4713165131854595e+01  2.5411384602656121e+01  2.6149982919112279e+01  2.6877340881425621e+01  2.7632988326781732e+01  2.8364504518413714e+01  2.9155559904206701e+01  2.9935631077953726e+01  3.0714233026108552e+01  3.1545198044356500e+01  3.2354210996544516e+01  3.3213544256264811e+01  3.4040934240404184e+01  3.4958502381129797e+01  3.5837409727336073e+01  3.6761028601563162e+01  3.7691567919224880e+01  3.8674784743264070e+01  3.9632663143975776e+01  4.0685476366583622e+01  4.1704340677725654e+01  4.2796961952053607e+01  4.3916244718759636e+01  4.5031129194038471e+01  4.6235880966853749e+01  4.7436732398370182e+01  4.8696936211750007e+01  5.0014743626914360e+01  5.1342065848421960e+01  5.2709197956014449e+01  5.4182822959728561e+01  5.5665089055022669e+01  5.7228199943441076e+01  5.8813006109519165e+01  6.0519662773153129e+01  6.2259839756728887e+01  6.4115104227597129e+01  6.6017932260550083e+01  6.7892515308369283e+01  7.0073088236447177e+01  7.2152165399094173e+01  7.4413914342756826e+01  7.6848424864794197e+01  7.9255985431753771e+01  8.1753146394025293e+01  8.4540474882963480e+01  8.7288831400472802e+01  9.0193491393910065e+01  9.3351716178131340e+01  9.6497405149666008e+01  9.9838919428694780e+01  1.0343246785501057e+02  1.0705369208801800e+02  1.1086188531791959e+02  1.1495032669052654e+02  1.1902248626088627e+02  1.2349798538463996e+02  1.2790055646310059e+02  1.3266643464262515e+02  1.3744674328422505e+02  1.4254756584165165e+02  1.4768935054512121e+02  1.5300811474471928e+02  1.5843347856991520e+02  1.6395302998584816e+02  1.6954937995205239e+02  1.7514537856433466e+02  1.8069663384896816e+02  1.8617970339035818e+02  1.9147915769836482e+02  1.9653933818453274e+02  2.0128768490365925e+02  2.0552053947882393e+02  2.0915621162885105e+02  2.1217150046673314e+02  2.1409188672922809e+02  2.1513438186575769e+02  2.1485176513696834e+02  2.1298300813839478e+02  2.0984923548823633e+02  2.0473854135440203e+02  1.9774932804246285e+02  1.8863235215586403e+02  1.7747615810910821e+02  1.6425747845283820e+02  1.4860309441552974e+02  1.3081181998244378e+02  1.1096916191102905e+02  8.9391216112913995e+01  6.6421728862753881e+01  4.2160235706054628e+01  1.7036713214827170e+01  -8.4976152258471540e+00  -3.3984259689126212e+01  -5.8959191793746470e+01  -8.2998248784241937e+01  -1.0564904353394311e+02  -1.2685626336037956e+02  -1.4629387022854428e+02  -1.6365314681692368e+02  -1.7888596349583190e+02  -1.9167678991704028e+02  -2.0244284686834285e+02  -2.1117263137377128e+02  -2.1782992093118457e+02  -2.2263779367504603e+02  -2.2569863190431101e+02  -2.2712413046023303e+02  -2.2718513482339796e+02  -2.2604789203573270e+02  -2.2383678210496208e+02  -2.2077884107162782e+02  -2.1698665866755397e+02  -2.1263805212480531e+02  -2.0780467690849767e+02  -2.0260512330609714e+02  -1.9715338590427567e+02  -1.9156283827381421e+02  -1.8585332188380056e+02  -1.8008904638256610e+02  -1.7432275278580286e+02  -1.6860968870163245e+02  -1.6303204596294910e+02  -1.5749559588349115e+02  -1.5210502643670392e+02  -1.4692412439636485e+02  -1.4173119127359155e+02  -1.3691114511178858e+02  -1.3205096945980694e+02  -1.2754051986940921e+02  -1.2303265686448188e+02  -1.1877491816356047e+02  -1.1477306716134613e+02  -1.1075549071099630e+02  -1.0703483823284732e+02  -1.0345531062764451e+02  -9.9886486079955617e+01  -9.6623615866141193e+01  -9.3459310181814246e+01  -9.0294331024796804e+01  -8.7433760036191472e+01  -8.4667077125346239e+01  -8.1853812647779179e+01  -7.9316284830348195e+01  -7.6780482501938721e+01  -7.4481559332801709e+01  -7.2060376251189965e+01  -6.9997878899720121e+01  -6.7731636306868680e+01  -6.5748484896480974e+01  -6.3803273637001958e+01  -6.1877755716476337e+01  -6.0095104769154716e+01  -5.8270042342362217e+01  -5.6664956517833538e+01  -5.4931089372802894e+01  -5.3410003693859153e+01  -5.1844078021792328e+01  -5.0393657557764058e+01  -4.8926066898001324e+01  -4.7586311406335923e+01  -4.6183643841362716e+01  -4.4892396621387768e+01  -4.3646287525395877e+01  -4.2404201382546589e+01  -4.1197496949040776e+01  -3.9996096290864664e+01  -3.8887946931335165e+01  -3.7765264879009862e+01  -3.6659570014280213e+01  -3.5626659438228032e+01  -3.4576708374811766e+01  -3.3563328974013096e+01  -3.2599457459725642e+01  -3.1626058547498783e+01  -3.0637944876828122e+01  -2.9751760119297938e+01  -2.8806868484392712e+01  -2.7931831866868571e+01  -2.7021448355939928e+01  -2.6193464592753045e+01  -2.5298153762613079e+01  -2.4489484858123514e+01  -2.3671923097035602e+01  -2.2839113957891758e+01  -2.2048963260321365e+01  -2.1258384111085729e+01  -2.0473743733427771e+01  -1.9706843701537878e+01  -1.8945304587986772e+01  -1.8189880396082263e+01  -1.7458941635010461e+01  -1.6697006078410915e+01  -1.6005093751699661e+01  -1.5268567150838429e+01  -1.4535145843299398e+01  -1.3859860143331787e+01  -1.3137681954061405e+01  -1.2464521915388563e+01  -1.1755810028409815e+01  -1.1076006834707808e+01  -1.0410237660056076e+01  -9.7213790487252201e+00  -9.0608074773783098e+00  -8.3925439505378083e+00  -7.7342187149029602e+00  -7.0745077104689766e+00  -6.4215386398060694e+00  -5.7690571057678524e+00  -5.1297259008959930e+00  -4.4877494087373631e+00  -3.8371893752273092e+00  -3.2142147282059934e+00  -2.5537512021364228e+00  -1.9496258025650559e+00  -1.3102596960916846e+00  -6.7715805096335502e-01  -5.6203170748431792e-02  5.6518986915744807e-01  1.1954670054345491e+00  4.6340510955690180e+00  4.2099327617193021e+00  3.8099326193621001e+00  3.4099838523299746e+00  3.0003689746228299e+00  2.5383338943942788e+00  2.1112584721865746e+00  1.7214235816176968e+00  1.2407418253732903e+00  7.9926992151183640e-01  3.9370672151791070e-01  -1.0379529000864683e-01  -5.5657976634446360e-01  -1.0964966873987820e+00  -1.5744315954877950e+00  -2.1193137169324747e+00  -2.6530584493659637e+00  -3.1598647586975317e+00  -3.7101022351861697e+00  -4.2503676125882759e+00  -4.9238254949512825e+00  -5.4891802975669934e+00  -6.1084211191661879e+00  -6.7164879504769734e+00  -7.4448456157659511e+00  -8.1223221537504102e+00  -8.8046420975862638e+00  -9.5736236557219225e+00  -1.0317615291683456e+01  -1.1164281213715439e+01  -1.1914426946055059e+01  -1.2801228501052828e+01  -1.3676540882395447e+01  -1.4477232730389098e+01  -1.5433847161333723e+01  -1.6388756244757868e+01  -1.7419255593627145e+01  -1.8401952144128877e+01  -1.9476814832732565e+01  -2.0526103286426661e+01  -2.1657813664964365e+01  -2.2772926375198747e+01  -2.4036734487997489e+01  -2.5208987703717501e+01  -2.6528202118532171e+01  -2.7830786779754916e+01  -2.9185512497960026e+01  -3.0526805937197278e+01  -3.2012879054456285e+01  -3.3487632468165636e+01  -3.5122134237962946e+01  -3.6669398181297950e+01  -3.8229645292356025e+01  -3.9974108465744152e+01  -4.1677678179848073e+01  -4.3474147517424868e+01  -4.5354921086243031e+01  -4.7253493670506522e+01  -4.9168225902270962e+01  -5.1247949852813917e+01  -5.3385616750203198e+01  -5.5565390115398515e+01  -5.7740994032269228e+01  -6.0086825299781083e+01  -6.2445918149516245e+01  -6.4907603778985575e+01  -6.7291392469297904e+01  -6.9940896417853992e+01  -7.2562882609413009e+01  -7.5356749421952358e+01  -7.8300042658978384e+01  -8.1135453338969725e+01  -8.4150193032515290e+01  -8.7283340252933272e+01  -9.0457734856607857e+01  -9.3720232688530103e+01  -9.7037791198439436e+01  -1.0053848284644405e+02  -1.0404783223879510e+02  -1.0767531883893611e+02  -1.1144221450773176e+02  -1.1534715410420119e+02  -1.1926976782928767e+02  -1.2326181673243283e+02  -1.2739744168581728e+02  -1.3163852723717724e+02  -1.3591361851226085e+02  -1.4036110461487397e+02  -1.4486603866790435e+02  -1.4945146546039567e+02  -1.5417880720701601e+02  -1.5878312302677196e+02  -1.6364670527159080e+02  -1.6828932875360144e+02  -1.7321975440600289e+02  -1.7797836619549281e+02  -1.8285383491904810e+02  -1.8749026207618192e+02  -1.9223446290973541e+02  -1.9686035447376739e+02  -2.0135473378949695e+02  -2.0569380480027002e+02  -2.0964717216572424e+02  -2.1351150813033641e+02  -2.1699896986315812e+02  -2.2012583470334175e+02  -2.2270586930552307e+02  -2.2484920043802177e+02  -2.2628384086812366e+02  -2.2711786840410045e+02  -2.2700272426133344e+02  -2.2616758277263514e+02  -2.2433341236730232e+02  -2.2145057392895762e+02  -2.1754016410145437e+02  -2.1230512947584555e+02  -2.0582482158882533e+02  -1.9798942621859288e+02  -1.8878557975666354e+02  -1.7822072808777122e+02  -1.6607915577126212e+02  -1.5273156377734256e+02  -1.3797863276130695e+02  -1.2196355975154583e+02  -1.0480731422147430e+02  -8.6646554107024215e+01  -6.7514936728964742e+01  -4.7858534682734302e+01  -2.7677484688747452e+01  -7.2536960390597418e+00  1.3192176714564548e+01  3.3449102580529164e+01  5.3338433282918338e+01  7.2540271622318798e+01  9.0893447156095490e+01  1.0828106849874520e+02  1.2454143604083136e+02  1.3955557379709845e+02  1.5331320528324417e+02  1.6560977391701991e+02  1.7641922276713129e+02  1.8565369821777946e+02  1.9365958583364443e+02  2.0034305585749314e+02  2.0574697761803839e+02  2.0997385567543131e+02  2.1306515917014389e+02  2.1553609164050488e+02  2.1654928396624629e+02  2.1665906300862557e+02  2.1602013120141964e+02  2.1455567109756925e+02  2.1270210211282637e+02  2.1014665421247409e+02  2.0708724707746273e+02  2.0372265981902063e+02  2.0011843829901682e+02  1.9618581794364945e+02  1.9206859200555496e+02  1.8757870382984046e+02  1.8318953219851844e+02  1.7853228784806481e+02  1.7400791344225223e+02  1.6944004895284769e+02  1.6482430611386332e+02  1.6026352312772198e+02  1.5558825149523526e+02  1.5101135893780963e+02  1.4655980768642181e+02  1.4214134744122288e+02  1.3780002447974707e+02  1.3370263399872601e+02  1.2953693147804611e+02  1.2535289137538578e+02  1.2139823049415180e+02  1.1755318073918599e+02  1.1382349730916997e+02  1.1012735858784677e+02  1.0651329980507444e+02  1.0301486364525692e+02  9.9665998802807593e+01  9.6414918178560285e+01  9.3173541767116561e+01  9.0152995162264375e+01  8.7125531718644027e+01  8.4287551489339521e+01  8.1410313925324417e+01  7.8774176954318094e+01  7.6084005788673466e+01  7.3525778090649837e+01  7.1068564737599488e+01  6.8682165480683963e+01  6.6304702444484306e+01  6.4152598218662547e+01  6.1914702354356884e+01  5.9842946217198943e+01  5.7765402389704640e+01  5.5769663166669083e+01  5.3826229914748559e+01  5.2082004668425327e+01  5.0253143972639919e+01  4.8556264865912908e+01  4.6839493653970230e+01  4.5204613060019113e+01  4.3643497165556909e+01  4.2131843514398803e+01  4.0713795900273830e+01  3.9259886184223809e+01  3.7920137633439623e+01  3.6576740697350388e+01  3.5296217254474684e+01  3.4040615213487243e+01  3.2838247911778041e+01  3.1704190867833031e+01  3.0626604538429554e+01  2.9504114528660949e+01  2.8435652270680663e+01  2.7446643998218057e+01  2.6442184336312646e+01  2.5508204873862304e+01  2.4619968174873211e+01  2.3706080322874929e+01  2.2871131204043539e+01  2.2035594133611323e+01  2.1266027560497019e+01  2.0494021143482950e+01  1.9708028811982036e+01  1.9057777653674364e+01  1.8329017868161081e+01  1.7685063480768491e+01  1.7032914350162610e+01  1.6392532749216688e+01  1.5760330451871999e+01  1.5170999296203796e+01  1.4575573822532123e+01  1.4037886797835693e+01  1.3479225156150111e+01  1.3001816203163155e+01  1.2461669996821648e+01  1.1988773940731475e+01  1.1473990138479083e+01  1.0970698191846001e+01  1.0520935848218318e+01  1.0043944623178019e+01  9.6122049878536853e+00  9.1622856897090621e+00  8.7460466380918636e+00  8.2912718772581808e+00  7.9205629032281228e+00  7.4894293759536898e+00  7.0506929174850397e+00  6.6904457725243986e+00  6.2849109967280050e+00  5.8771408184530980e+00  5.4537272078529133e+00  5.0419343776915904e+00  1.7856119150894947e+00  6.4190823325478918e+00  -2.8564367039148939e+00  1.0921277509541312e+01  -7.8366554796032943e+00  1.5570827924495255e+01  -1.2899832493012324e+01  2.0590856912053670e+01  -1.8541071972300752e+01  2.6224410256086504e+01  -2.5235704509636410e+01  3.1770903338767404e+01  -3.1653181556035996e+01  3.7665780666696683e+01  -3.9501378173271249e+01  4.4009981806003459e+01  -4.8295420226495509e+01  5.0831146279003740e+01  4.1323508827571489e+00  -5.6344672910590667e+01  -8.6603366493903455e-01  8.9279045776957791e+00  -6.0060642807048445e+00  4.0068407965038570e+00  -4.5195685698336288e+00  -3.5737240334861436e-01  7.8298438709890714e+00  5.8163955484287648e+01  -1.1427989115958910e+01  1.3903201020570680e+01  1.1839021451754018e+01  -6.4899240497722289e+01  -9.1140911877888833e+00  1.8896198810337353e+01  -1.6927593245534744e+01  1.6298032416261680e+01  -1.3945031053693725e+01  1.8775594214303757e+00  6.6158799188286991e+01  6.3623123281858760e+00  -3.9226515641447000e+00  1.8827042524846429e+00  2.4253373592078649e+01  -2.3134935573282398e+01  1.1270426124368313e+01  2.1453099979458518e+01  -2.0303197784486002e+01  -7.4356353595647491e+01  -9.2722468724680702e+00  1.6760237572662898e+01  -1.4489354612791438e+01  7.4762065195219350e+01  -2.9590465741886298e+01  2.9908948002157764e+01  -6.5021428972415194e+00  -2.3109144276329050e+00  -8.3801557598129335e+01  2.2200683162723429e+01  -2.0391300391974035e+01  -1.6365024174234946e+01  2.6337016220073892e+01  5.8532809774367998e+00  9.6949469199053659e+00  -2.6763480948936113e+01  1.3807336140136114e+01  1.8323186245803431e+01  3.5329766133340165e+01  -3.5966637048658882e+01  8.5026319416207770e+01  2.6967719362359023e+01  -9.3631217444849170e+01  -1.0810777333321782e+01  3.3146507350819036e+01  -3.4133308484860713e+01  -2.6349596869160056e+01  -2.2828410491963346e+01  9.4542243815294725e+01  9.0269075967455343e+00  -9.7698100060100002e-01  3.2700728754114301e+01  4.1586585420179297e+01  -4.4706576340403387e+01  2.9181608810324210e+01  -3.2887350389304750e+01  4.6293893899637686e+00  -1.0473982291217079e+02  -4.1401207893540338e+01  3.9587439429923208e+01  1.3563123602088927e+01  4.7759737385575512e+01  2.3162732083151408e+01  -9.8152727748331490e+00  -2.9802726468201616e+01  -4.6760568094055728e+00  1.0492745983087943e+02  3.8213806315783401e+01  -3.9771697891377677e+01  -1.5026464441364894e+01  -5.2330811249948809e+01  1.8413944164459277e+01  -1.1629571105144942e+02  3.2706853648483918e+00  7.9501730915423421e+00  1.8867950920619708e-01  4.6554566815419541e+01  -7.7868093342987752e+00  -2.4032149692209397e+00  -5.6905356729170595e+00  -5.1328852701741972e+01  1.3018669188408248e+01  2.8370586461954336e+01  8.4891118006146693e-01  5.0027742511240216e+00  1.1476685588422114e+02  3.5704017562278651e+01  1.2230854873463723e+01  2.7810961958253002e+00  4.4609412441792962e+01  1.5434744965106278e+01  -4.5503423725227528e+01  5.2980555410009842e+01  5.4528227075017512e+01  2.7972303601637121e+00  -3.0123903959203520e+00  9.7893471293066128e+00  -3.7321123459750034e+01  -1.2929449818042971e+02  3.1300109296659251e-01  -2.3410054199532402e+00  2.2499792084519605e+01  4.5400578132145073e+00  6.1869803499362170e+01  -6.4443626192872596e+00  -4.8323585022959300e+01  3.2034180127195651e+00  -5.9149906834206497e+01  9.1760602636626443e-01  -6.8476216301153148e-01  1.2509688948561430e+02  -6.0559008583818496e+01  -1.3227677471002151e+01  -1.1094106208029411e+01  -7.0666203989043117e+00  2.0722817154042186e+01  6.6792253196218727e+00  8.2241867733158607e+00  5.4377027524335100e+00  -6.1745152881279752e+00  7.8620474897765780e+00  -2.7748096589404575e+01  2.0410225419947167e+01  1.8483545995359862e+01  -4.4233790623051936e+00  -2.0834581284924688e+01  1.5052508239116362e+01  1.0080864872841602e+01  -4.4927982094127215e+00  -1.4913121702512134e+01  -1.8988843883023399e+01  -1.6513181624780486e+01  -9.4455531161131070e+00  5.0956342187151179e+01  -2.2756979764706347e+01  4.2531695034612099e+01  -1.6233010848138392e+01  7.0784949405121189e+00  1.0260782445132078e+01  1.1687330932080275e+01  -1.2631566317813798e+01  -1.6352193375621176e+00  -8.1723651528154058e+00  2.3878493130168529e+01  3.4156227116760334e+01  -6.9518204281881125e+01  -1.3994641061013277e+02  6.0326256121044686e+01  2.4000147379678609e+01  1.7320474478415420e+01  -1.1071108571270335e+01  -1.7662819942268371e+01  -2.2630106424658909e+01  -2.5028904456443982e+01  -5.6110051770548367e+01  1.5964523614112142e+01  1.4360494613136648e+01  -1.7141351300548784e+01  1.1921180844574858e+01  -1.3691491083405289e+01  -1.1664437152959511e+01  -6.7918501973556303e+01  1.3767649483052446e+02  6.9780089993340553e+01  2.5741347277232116e+01  -8.5387184605576270e+00  5.1721888472704505e+00  2.4874439845252830e+01  -1.1651019171825086e+00  -1.8734271725221170e+01  -3.5767223041529035e+00  5.7891432454849642e+01  8.0745667960558942e-01  9.5981184678460743e+00  1.9253428243332809e+01  -1.5161974686581016e+02  -3.6474473829701004e+01  1.5605859327434352e+01  -7.9410212753921829e+00  -1.3139164114532802e+01  4.0251938137936463e+01  -2.1106760308650784e+01  7.0953306971573241e+01  -1.9811852260811666e+01  2.8897376663826154e+01  3.1382403281963416e+01  6.9020978072315682e+00  -6.4430719923815658e+01  -4.2561457115822513e+01  1.8766888664832269e+01  2.2235326959586605e+01  1.4916830950413424e+02  2.0550732306264273e+01  -2.8679502650303380e+01  -3.1482216756932598e+01  7.9326879244600221e+01  6.9153433927481105e+00  2.1486666505508984e+00  1.1021619806334334e+01  -1.6872028340231049e+00  1.3418743972931075e+01  -7.9211863669459831e+01  -7.6571552436579154e+01  2.0966029990261333e+01  5.6696937085853625e+00  -4.6336646320051109e+00  -4.2638400529670143e+01  2.7942346846800010e+01  -8.7476348041697264e+01  -2.4627733285594278e+01  6.5389534432395010e+01  -1.6442769849643412e+02  8.0261112063016824e+01  2.9424791474777734e+01  1.2873732618393587e+01  1.4341735778284335e+01  2.3122913974749770e+00  -5.4069179825387188e+00  6.4846520631914871e+01  1.2938159510407985e+01  -8.8987392091057444e+01  3.0464144453781625e+01  -2.4407223304893179e+01  4.6761562457889809e+01  1.6037908657277882e+02  -2.7319068293492020e+01  -9.1513114196019547e+00  -3.0141141759286285e+01  1.7679432886783335e+01  3.6571084968442840e+01  -3.4169247024288651e+01  -7.3095062586937189e+01  -3.8037561493175225e+01  -3.5148459445955794e+01  3.6793149467684628e+01  3.4554986393580400e+01  -1.7548241176016330e+02  -1.1262915055218850e+01  -3.1719391973975775e+01  -5.2760899750264315e+01  -5.5131833247124980e+01  2.6671420141383869e+01  2.4376802868482805e+01  -2.9337373323344263e+01  -2.5538505120792902e+01  1.2081513758328782e+01  4.9726964872001226e+01  3.4109808827999548e+00  5.4755487593122432e+01  -1.8605479089414597e+01  5.6590474102038272e+01  -9.6761665504249194e+01  8.7405924490918039e+01  1.7563141694923324e+01  1.6241869744493791e+01  -6.3425222554103883e+01  3.0392149870819132e+01  -1.4636440163984471e+01  2.5135149977259719e+01  1.7048263535544226e+02  7.4217490803251806e+01  -8.1683484837699467e+01  -3.2406619697799641e+01  -4.5462535352929656e+01  3.2537243973565246e+01  -3.4904830159992382e+00  -2.6739387938680675e+01  2.2062482659016986e+01  6.2314515970980239e+01  4.0279243892089539e+01  9.2279258309185064e+00  -1.5407196647758536e+01  -5.9855131473050982e+01  1.9540382