<?xml version="1.0"?>
<VTKFile type="UnstructuredGrid"  version="0.1"  >
<UnstructuredGrid>
<Piece  NumberOfPoints="2912" NumberOfCells="5086">
<Points>
<DataArray  type="Float64"  NumberOfComponents="3"  format="ascii">-20 2.5 0  -20 0 0  -1 0 0  -0.9996988186962042 0.02454122852291233 0  -0.9987954562051724 0.04906767432741797 0  -0.9972904566786902 0.07356456359966773 0  -0.9951847266721968 0.09801714032956083 0  -0.99247953459871 0.1224106751992163 0  -0.989176509964781 0.1467304744553618 0  -0.9852776423889412 0.1709618887603012 0  -0.9807852804032304 0.1950903220161286 0  -0.9757021300385285 0.21910124015687 0  -0.970031253194544 0.2429801799032641 0  -0.9637760657954398 0.2667127574748985 0  -0.9569403357322088 0.2902846772544624 0  -0.9495281805930367 0.3136817403988914 0  -0.9415440651830207 0.3368898533922203 0  -0.9329927988347388 0.3598950365349883 0  -0.9238795325112867 0.3826834323650899 0  -0.9142097557035307 0.4052413140049899 0  -0.9039892931234433 0.427555093430282 0  -0.8932243011955152 0.4496113296546069 0  -0.8819212643483549 0.4713967368259979 0  -0.8700869911087113 0.4928981922297841 0  -0.857728610000272 0.5141027441932218 0  -0.8448535652497071 0.5349976198870972 0  -0.8314696123025453 0.5555702330196022 0  -0.8175848131515836 0.5758081914178454 0  -0.8032075314806448 0.5956993044924335 0  -0.7883464276266062 0.6152315905806269 0  -0.773010453362737 0.6343932841636455 0  -0.7572088465064846 0.6531728429537766 0  -0.7409511253549589 0.6715589548470186 0  -0.7242470829514668 0.6895405447370671 0  -0.7071067811865475 0.7071067811865476 0  -0.6895405447370669 0.7242470829514669 0  -0.6715589548470184 0.740951125354959 0  -0.6531728429537765 0.7572088465064847 0  -0.6343932841636454 0.7730104533627371 0  -0.6152315905806267 0.7883464276266063 0  -0.5956993044924334 0.8032075314806449 0  -0.5758081914178453 0.8175848131515837 0  -0.555570233019602 0.8314696123025455 0  -0.534997619887097 0.8448535652497072 0  -0.5141027441932217 0.8577286100002721 0  -0.492898192229784 0.8700869911087115 0  -0.4713967368259977 0.881921264348355 0  -0.4496113296546067 0.8932243011955152 0  -0.4275550934302819 0.9039892931234434 0  -0.4052413140049897 0.9142097557035307 0  -0.3826834323650897 0.9238795325112867 0  -0.3598950365349882 0.9329927988347388 0  -0.3368898533922199 0.9415440651830208 0  -0.3136817403988914 0.9495281805930367 0  -0.2902846772544622 0.9569403357322089 0  -0.2667127574748983 0.9637760657954398 0  -0.2429801799032639 0.970031253194544 0  -0.2191012401568697 0.9757021300385286 0  -0.1950903220161282 0.9807852804032304 0  -0.1709618887603012 0.9852776423889412 0  -0.1467304744553616 0.989176509964781 0  -0.1224106751992162 0.99247953459871 0  -0.09801714032956065 0.9951847266721969 0  -0.07356456359966733 0.9972904566786902 0  -0.04906767432741801 0.9987954562051724 0  -0.02454122852291214 0.9996988186962042 0  6.123233995736766e-17 1 0  0.02454122852291226 0.9996988186962042 0  0.04906767432741813 0.9987954562051724 0  0.07356456359966745 0.9972904566786902 0  0.09801714032956077 0.9951847266721968 0  0.1224106751992163 0.99247953459871 0  0.1467304744553617 0.989176509964781 0  0.1709618887603014 0.9852776423889412 0  0.1950903220161283 0.9807852804032304 0  0.2191012401568698 0.9757021300385286 0  0.242980179903264 0.970031253194544 0  0.2667127574748984 0.9637760657954398 0  0.2902846772544623 0.9569403357322089 0  0.3136817403988916 0.9495281805930367 0  0.3368898533922201 0.9415440651830208 0  0.3598950365349883 0.9329927988347388 0  0.3826834323650898 0.9238795325112867 0  0.4052413140049899 0.9142097557035307 0  0.4275550934302822 0.9039892931234433 0  0.4496113296546066 0.8932243011955153 0  0.4713967368259978 0.8819212643483549 0  0.4928981922297841 0.8700869911087113 0  0.5141027441932217 0.8577286100002721 0  0.5349976198870973 0.844853565249707 0  0.5555702330196023 0.8314696123025452 0  0.5758081914178453 0.8175848131515837 0  0.5956993044924335 0.8032075314806448 0  0.6152315905806268 0.7883464276266062 0  0.6343932841636455 0.773010453362737 0  0.6531728429537768 0.7572088465064845 0  0.6715589548470183 0.7409511253549591 0  0.6895405447370669 0.7242470829514669 0  0.7071067811865476 0.7071067811865475 0  0.724247082951467 0.6895405447370668 0  0.7409511253549591 0.6715589548470183 0  0.7572088465064846 0.6531728429537768 0  0.773010453362737 0.6343932841636455 0  0.7883464276266063 0.6152315905806268 0  0.8032075314806449 0.5956993044924334 0  0.8175848131515837 0.5758081914178453 0  0.8314696123025452 0.5555702330196022 0  0.8448535652497071 0.5349976198870972 0  0.8577286100002721 0.5141027441932217 0  0.8700869911087115 0.492898192229784 0  0.881921264348355 0.4713967368259976 0  0.8932243011955153 0.4496113296546065 0  0.9039892931234433 0.4275550934302821 0  0.9142097557035307 0.4052413140049899 0  0.9238795325112867 0.3826834323650898 0  0.932992798834739 0.3598950365349881 0  0.9415440651830208 0.3368898533922201 0  0.9495281805930367 0.3136817403988915 0  0.9569403357322088 0.2902846772544623 0  0.9637760657954398 0.2667127574748984 0  0.970031253194544 0.2429801799032639 0  0.9757021300385286 0.2191012401568698 0  0.9807852804032304 0.1950903220161282 0  0.9852776423889412 0.1709618887603012 0  0.989176509964781 0.1467304744553617 0  0.99247953459871 0.1224106751992162 0  0.9951847266721969 0.0980171403295606 0  0.9972904566786902 0.07356456359966743 0  0.9987954562051724 0.04906767432741801 0  0.9996988186962042 0.02454122852291229 0  1 0 0  20 0 0  20 2.5 0  0 2.5 0  -10 2.5 0  10 2.5 0  -10.5 0 0  -5 2.5 0  10.5 0 0  5 2.5 0  -5.75 0 0  5.75 0 0  -15.25 0 0  -15 2.5 0  15.25 0 0  15 2.5 0  -17.625 0 0  -17.5 2.5 0  17.5 2.5 0  17.625 0 0  12.5 2.5 0  12.875 0 0  -12.5 2.5 0  -12.875 0 0  -2.5 2.5 0  2.5 2.5 0  -8.125 0 0  -7.5 2.5 0  8.125 0 0  7.5 2.5 0  -3.375 0 0  3.375 0 0  -18.75 2.5 0  20 1.25 0  16.4375 1.19375 0  -16.25 2.5 0  13.75 2.5 0  -14.0625 0 0  -11.6875 0 0  11.6875 0 0  8.75 2.5 0  -8.75 2.5 0  6.9375 0 0  6.25 2.5 0  -6.25 2.5 0  -9.3125 0 0  -6.9375 0 0  9.3125 0 0  11.25 2.5 0  -11.25 2.5 0  3.75 2.5 0  4.5625 0 0  -4.5625 0 0  -3.75 2.5 0  -13.75 2.5 0  14.0625 0 0  -16.4375 0 0  -20 1.25 0  -18.8125 0 0  18.75 2.5 0  -18.21875 1.2359375 0  18.125 1.278125 0  -15.84375 1.2125 0  -14.375 1.30859375 0  14.65625 1.203125 0  2.1875 0 0  -2.1875 0 0  13.125 1.315625 0  3.125 1.315625 0  -3.125 1.315625 0  -12.28125 1.1890625 0  -5.15625 1.184375 0  11.09375 1.184375 0  5.625 1.325 0  -10.97262068800044 1.220713793599868 0  9.375 1.32734375 0  -6.875 1.32734375 0  -9.67626828410207 1.24449497187193 0  8.061334925608099 1.312208731402025 0  -8.188665074391901 1.312208731402025 0  -1.25 2.5 0  1.25 2.5 0  4.37465139623265 1.41327350462657 0  16.25 2.5 0  6.84375467392576 1.430449641528851 0  -1.846573640185365 1.334702047669377 0  1.846573640185365 1.334702047669377 0  -17.02955351149946 1.396129584721571 0  16.4375 0 0  18.8125 0 0  -13.31314667860176 1.511193493282891 0  -4.122005747945582 0.961844908681634 0  12.12799425205442 0.961844908681634 0  15.54930641305724 1.660405980876393 0  19.0578783583929 0.9559530595267438 0  8.71875 0.6864560603786576 0  -7.53125 0.6864560603786576 0  -0.6257799091428727 1.819008129832856 0  0.6257799091428734 1.819008129832855 0  6.291331569065717 0.7194652423646902 0  -19.11204717950418 0.9044926794710327 0  -4.488713231834613 1.772186102355655 0  11.76128676816539 1.772186102355655 0  -19.28185607205105 1.781856072051052 0  19.30868080343342 1.808680803433421 0  9.90625 0.6371857066656857 0  -6.34375 0.6371857066656857 0  3.796921710049233 0.7617406159238448 0  7.392020585015773 0.7480839107774819 0  -8.910372062800235 0.7929553447587234 0  10.2506781820361 1.451853913138859 0  -5.999321817963904 1.451853913138859 0  4.957643119381741 0.7716423099297361 0  17.29984375 0.8640625 0  15.41193625859067 0.8279888354083842 0  -13.72251704931534 0.7728002662082776 0  16.875 2.5 0  17.12178336313261 1.690954734835967 0  -11.64001625260176 1.74572103154608 0  2.477726735235857 0.7850262278604345 0  13.46875 0 0  13.765625 0.7802887470308788 0  -2.78125 0 0  -2.477726735235857 0.7850262278604346 0  -10.33383379274331 1.744431431923121 0  13.91957519050334 1.653419259628842 0  -15.08147780274903 0.8341506893754731 0  -15.14066649024666 1.671962869821843 0  -8.950686484882164 1.678622661163363 0  -17.55392917606836 0.794731598412167 0  -16.80247533599675 0.6688259240674158 0  -12.94289066923278 0.7766744225472476 0  -9.90625 0 0  -10.31601468672093 0.7730817089126454 0  -18.21875 0 0  -12.28125 0 0  -17.68515668569534 1.768907656575843 0  18.21875 0 0  10.85059123027421 1.880344717307101 0  -5.399408769725794 1.880344717307101 0  -3.738137326223278 1.749164834446819 0  -3.125 2.5 0  12.46235897590077 1.601301060091387 0  -11.09375 0 0  -11.61661448001209 0.7781698802173554 0  -15.625 2.5 0  -1.764022608759088 0.6027229563180789 0  1.59375 0 0  -8.125 2.5 0  8.125 2.5 0  8.713468311289519 1.727645658498745 0  9.375 2.5 0  -7.536531688710481 1.727645658498745 0  -6.875 2.5 0  14.375 2.5 0  17.78381794101733 1.874391370085592 0  18.59891476281433 1.80649740393129 0  -18.58835555265984 1.824268641341969 0  1.806126122135773 0.6510673837470153 0  -16.875 2.5 0  -16.36681393636619 1.755298393865037 0  -16.13072438662071 0.6014017614895231 0  -13.92460230791385 1.83195710210235 0  -14.40198779087891 0.6105385965811564 0  20 0.625 0  19.40625 0 0  14.6875 1.888836596385542 0  14.65625 0 0  12.78248197181444 0.6991460920542635 0  -3.467518028185561 0.6991460920542635 0  13.125 2.5 0  2.491957142932539 1.738660596534321 0  3.125 2.5 0  1.875 2.5 0  3.718973573227002 1.75927763286174 0  -2.491957142932539 1.738660596534321 0  -1.875 2.5 0  -9.375 2.5 0  6.2001972846108 1.772767401802766 0  5.625 2.5 0  5.027483518098582 1.760895488350309 0  5.625981449127788 0.6566963631252629 0  -12.30101114679273 1.859484693920165 0  9.742489932362783 1.884363450023167 0  -6.507510067637216 1.884363450023166 0  1.13492303295015 1.283502262067074
[...]
<PointData  Scalars="f_6765475"> 
<DataArray  type="Float64"  Name="f_6765475"  format="ascii">9.9994094185787785e-01  1.0000284850139536e+00  -1.8260853894347059e-04  -9.4920520368842369e-05  -2.1207934976202572e-05  -2.2833817481587211e-04  -1.2552533869165009e-04  2.1258156561831760e-06  -4.7614443742508018e-05  -4.9083921521718462e-05  1.1069163505645504e-03  -5.1773985943599387e-05  -1.5890479621446748e-04  -1.0627258808355396e-04  -1.0280957223376928e-04  -5.3728449077947969e-05  -5.0832380471230656e-05  -5.2238740605866744e-05  -1.1504440512703592e-05  -2.2336480823396113e-06  2.0707633145669812e-06  -6.6313859506966188e-07  -2.2619250650917321e-06  5.2538854468840539e-06  -1.7829369946934378e-06  5.0886731540248078e-06  3.0612565269421517e-06  5.4032932648521839e-07  2.5949663173783495e-06  2.9849533535845473e-05  1.5108796586392306e-05  1.1413108757890414e-06  6.7205827892127906e-06  3.4612130189028245e-05  2.6218634814632622e-05  1.9004494889936116e-05  3.9036996837965637e-05  1.3296478930255922e-05  2.1530052231000516e-05  3.8774695812308479e-05  4.6517593760641900e-05  1.8894369534229814e-05  4.4713043802775890e-05  5.0460875614804081e-05  1.0373206163992518e-04  9.8348033987835645e-05  1.8625380879426427e-03  7.9612634524553678e-05  7.2153670768322924e-05  5.4907707128525854e-05  1.0711743991340889e-04  1.1629135204549340e-04  3.9865186948172416e-05  8.9708272460656103e-05  9.4793378373969213e-05  2.1547806717470413e-04  2.0959212429932120e-04  1.6199462717975631e-04  1.7122553430543814e-04  1.8205935027335631e-04  7.6940034817201916e-05  1.9772333217552040e-04  2.6926299814649291e-04  2.2509359261503676e-04  1.7038660930176279e-04  1.8257981443817306e-04  1.7855302746176466e-04  1.7670569448860105e-04  3.0962137705889192e-04  6.7320454440605222e-05  1.4140210750338049e-04  2.2928051332010937e-04  1.9343652357958595e-04  1.3432982665583277e-04  1.6761972591439084e-04  2.3403846137072428e-04  2.0924444464706377e-04  1.2622588171395515e-04  2.6070289280959629e-03  1.0781978459770401e-04  1.4928354815527990e-04  7.8514386358344949e-05  5.4640023889613004e-05  1.0035198675836095e-04  8.4096806579099588e-05  1.1909679584939793e-04  9.9440453085616819e-05  6.6972695897522880e-06  4.6128136660543257e-05  8.3172263559491583e-05  3.0670828820532486e-05  1.8503709094951087e-05  2.9393246443968749e-05  3.1185248429043309e-06  6.4574318042285754e-05  1.4884027583944254e-05  -4.9816779550435687e-06  4.2427659388929403e-05  -8.4220263568206465e-06  -1.5001548840025000e-05  2.7836016310563471e-05  -1.9006532103055852e-05  -3.3882176495324701e-05  1.8992681851347377e-05  -1.8673987278357832e-07  3.2737611185703362e-06  1.6749350578086741e-05  -2.8510951308192397e-06  -1.9261706505265059e-05  -4.9308271702435483e-05  -1.2660389078456593e-05  -1.1424238853767979e-07  -1.1961099176734783e-04  -3.9735089574730688e-05  4.6934277147951812e-06  2.2670543323683058e-06  -8.9599489881152998e-05  -2.0227426733437833e-05  -2.6083143296475127e-05  -9.6999990607135472e-06  -1.8998571173563459e-04  -7.7760902495140700e-05  -5.4690301055095207e-05  -2.0380392417389851e-05  -1.0974387276996397e-05  -5.5046301482998506e-05  -1.0582577518837733e-04  -1.3302717138064172e-04  -3.4156546326973295e-05  -2.2928409664131714e-05  -2.2662461443511905e-05  9.9999099000730818e-01  9.9999999802202444e-01  1.0414875645756123e+00  9.9999986636449367e-01  9.9999974796321434e-01  9.9999935104159809e-01  1.0002426265215365e+00  1.0000141445971171e+00  1.0002034516052329e+00  9.9428976965924831e-01  9.9135070419651961e-01  9.9952753003669148e-01  1.0000011023571351e+00  9.9999080139429164e-01  9.9999997077080860e-01  9.9746545160738809e-01  1.0001674220878360e+00  9.9999996404497582e-01  9.9999081663255918e-01  1.0000000159061184e+00  9.9999178925007948e-01  1.0000002636136811e+00  9.9997035590439809e-01  1.0084212858073440e+00  1.0087007851587633e+00  9.9983658014194488e-01  1.0000046159276259e+00  9.9993681426977266e-01  9.9998310620301345e-01  8.7706726104150923e-01  8.5436475098306208e-01  1.0004324792963204e+00  9.9999332051166978e-01  9.9999318889716571e-01  1.0000292814350991e+00  9.9999997572895405e-01  9.9985997824753292e-01  9.9999672108930937e-01  9.9999644582153047e-01  9.9999325752279955e-01  9.9999929342952176e-01  9.9859335398891813e-01  1.0000316561319122e+00  1.0000091648499199e+00  9.9998181422304389e-01  9.9896854707969973e-01  1.0000471649223195e+00  9.9999978319659555e-01  9.9999997784572681e-01  1.0015274750811389e+00  9.6083116089499054e-01  9.7261923483784518e-01  1.0016272563400768e+00  1.0000008601374477e+00  9.9999092722383520e-01  9.9876057566963639e-01  1.0000013807700243e+00  9.9674710749284101e-01  9.9999998117853073e-01  1.0001019886591789e+00  9.9999349769450629e-01  1.0001523424500502e+00  1.0000705256231139e+00  9.9999320899809985e-01  5.1071434765064638e-01  5.4997872246530721e-01  9.9999335765918951e-01  1.0682196577126928e+00  1.0594233491848213e+00  1.0000030814251151e+00  1.0033039542797519e+00  9.9999032157935430e-01  1.0041887731275505e+00  1.0000004099328059e+00  9.9997624427309673e-01  1.0004942609648235e+00  1.0000037633186898e+00  1.0000577005871734e+00  1.0000650814285215e+00  1.0143533281992336e+00  1.0312290554876209e+00  1.0225623301408611e+00  9.9999998539626578e-01  1.0009778766039041e+00  1.2151269714465691e+00  1.2051949349898214e+00  1.0007115014262651e+00  9.9999080586145028e-01  9.9999083355832707e-01  1.0000310888646620e+00  9.9930359371194544e-01  9.9999252701213082e-01  9.9999510626225008e-01  9.9999238472585172e-01  1.0000196919759838e+00  9.9987570792943503e-01  2.1830853345959027e+00  2.0726952245102956e+00  9.9841685285154036e-01  9.9820396104567322e-01  1.0175933931794032e+00  9.9999248240747107e-01  1.0021285070426589e+00  9.9999580008741573e-01  1.0000125374519493e+00  9.9902658880860873e-01  9.7140114631844221e-01  9.9977850401166912e-01  9.9999664827422274e-01  9.9998006349943991e-01  1.0019293651946448e+00  9.9247672186580083e-01  9.9999211481043915e-01  9.9999202886847771e-01  9.9996713836942275e-01  9.9999997209853142e-01  9.9999525835239200e-01  1.0000017075179226e+00  8.9669517847203906e-01  9.9999117237718582e-01  9.9999195369797289e-01  7.4889128919401515e-01  8.9060587299271199e-01  1.0000000093853283e+00  9.9999496629980655e-01  9.9988113192018602e-01  1.0002879913803067e+00  1.0000181690702776e+00  9.9886186863780335e-01  9.9913524758937622e-01  9.9998992181113533e-01  9.9999576912843058e-01  1.0000004950149533e+00  9.9679801505298737e-01  9.9998932219237957e-01  1.0020518670096883e+00  9.9999083931173749e-01  9.9998611738409138e-01  1.0046810376425208e+00  1.0481949226261791e+00  9.9719635708555410e-01  9.9999371085070132e-01  9.9999948525707050e-01  9.9999945667942625e-01  1.0000265539403734e+00  6.0697256306909619e-01  2.0940168559925845e-01  9.9999682302484783e-01  9.9999040122650262e-01  9.9996167861919316e-01  9.9999824165553008e-01  1.0002189960142169e+00  9.9999667224644795e-01  9.9999996209660369e-01  9.9999617340036506e-01  9.9999580393064691e-01  1.0034274167754276e+00  6.6633137618412308e-01  1.0000726823870498e+00  1.0008173498375825e+00  9.9942041000203474e-01  1.0000809778473787e+00  9.9988319077072885e-01  9.9999158932025345e-01  9.9999092944200274e-01  9.9999624645465102e-01  9.9999084893573520e-01  9.9999216070056995e-01  9.5868349568122235e-01  9.9999998693348902e-01  1.2187222614360205e+00  1.0080822380097461e+00  1.0223581157842354e+00  1.0627273816707896e+00  1.2179549620524988e+00  1.0311776190345714e+00  9.9999967496595166e-01  1.0029860686601586e+00  9.9969034684094848e-01  1.0150360313189699e+00  9.9510672676828116e-01  1.0000069642585441e+00  9.9996520614113493e-01  1.0009600890502426e+00  1.2843192047245795e+00  1.3364603025072892e+00  9.9999497120125214e-01  9.9120881530387872e-01  1.0000011183019812e+00  9.9800656632090012e-01  9.9999593336254666e-01  9.1240744140520114e-01  9.9999079205870067e-01  9.9999149993038006e-01  9.9995321765413880e-01  9.9995792396917915e-01  1.0002964429795658e+00  1.5704657354354541e+00  1.5649394957803815e+00  9.9999977145788610e-01  9.9999327087626777e-01  9.4008645348673137e-01  1.0000019741658024e+00  9.9999664374544373e-01  9.9999155848360033e-01  1.0005112312933429e+00  1.0000002270031729e+00  9.9750815792104963e-01  9.9838999420179575e-01  1.0001242848628573e+00  1.0000030258157131e+00  9.9993745023840064e-01  9.9955409853832633e-01  2.3475589570723767e+00  9.9999983104867152e-01  9.9999995865666169e-01  9.9999972240975321e-01  1.0010047846927015e+00  9.9999986401600460e-01  9.9947362486760460e-01  1.0633018121773998e+00  1.0267281976235836e+00  9.9999996502487698e-01  9.9963912033890345e-01  9.9999612717107289e-01  9.9999996958369830e-01  9.9999933357100068e-01  9.9996777373601842e-01  1.0005140199687139e+00  1.0000000709203209e+00  9.9999137968701612e-01  9.8719733960999401e-01  1.0000029318429291e+00  9.9999151953490573e-01  1.0001615397247690e+00  1.0000418545540952e+00  1.0000091504576847e+00  9.9999312943849850e-01  9.9954253028615603e-01  1.0000247368837683e+00  2.6251476981603933e-01  9.9972914350058351e-01  9.9993249642293469e-01  9.8067133584744071e-01  9.9994356560658981e-01  9.9955235952875854e-01  9.2038899804692176e-01  9.9760051392762594e-01  1.0000305261169977e+00  9.9622154529679130e-01  9.9958728637766181e-01  1.0000422316615643e+00  9.9815997842915594e-01  9.9921556019215674e-01  7.2422996458373767e-01  9.9999077736995157e-01  1.1091954645481275e+00  9.9999589682788659e-01  1.0958481821511035e+00  1.0065049502616290e+00  1.0001181330551514e+00  9.9999145601499839e-01  9.7256949141939697e-01  9.9955674101360537e-01  1.0013369168485846e+00  9.9897963169173376e-01  9.9999282427919911e-01  1.0247529988051800e+00  9.9999378771982983e-01  1.0000105700648556e+00  1.0000408808127450e+00  9.9999191048156566e-01  1.0018837334985486e+00  9.9997947008191923e-01  1.0000182144589718e+00  1.0007463130439240e+00  1.0000251334799202e+00  1.0072412345389048e+00  9.9999182464676106e-01  1.0228847126560996e+00  1.0014359443885701e+00  1.0000359760978992e+00  1.0001312107768190e+00  9.9999891646646222e-01  1.0004438971430640e+00  9.9995245647631359e-01  9.9999585010552661e-01  9.9757117327958578e-01  1.0001832473171037e+00  9.9999144579442867e-01  9.7054200496681542e-01  9.9999385886039927e-01  9.9999742357053545e-01  9.9999354351939251e-01  1.0287606395986904e+00  8.7028867604362603e-01  1.0070432547708268e+00  9.9999274444250108e-01  9.9999353033186511e-01  9.9999212522513803e-01  1.0244107251001238e+00  1.0003889841401767e+00  1.2658752666043425e+00  1.3305843181492794e+00  1.0000006826458134e+00  1.0000759254726819e+00  1.0000017226181637e+00  9.9999405327765523e-01  9.9999504780529591e-01  9.9999323984799737e-01  9.9999698676787052e-01  1.0003237371657221e+00  9.9999316469843613e-01  5.6197176083186862e-01  9.9999260405044121e-01  1.0882466965692930e+00  1.1161012486984692e+00  9.9714050616039895e-01  9.9897899902691367e-01  9.9876100554358704e-01  9.9813873409124787e-01  9.9999763036154321e-01  5.7658490525972550e-01  1.8041781966554291e+00  1.7882198640220901e+00  1.7538933288829814e+00  1.7577720839405893e+00  9.9996323646098628e-01  9.9974895520622475e-01  9.9999119623137755e-01  1.0337933932527255e+00  9.9999496017123846e-01  1.0000046083776006e+00  9.9999326878543116e-01  9.9999119609850629e-01  9.9999161409872694e-01  9.9999999105919779e-01  9.9277547337538341e-01  1.0001049678508898e+00  1.0000013942970565e+00  1.0086642192502766e+00  9.9999160259874631e-01  9.9999461060563821e-01  1.0000043555067146e+00  9.9980494311064949e-01  9.9952641120788888e-01  1.0010248593484006e+00  9.9999495317915243e-01  1.0032216738234827e+00  9.9514815721028482e-01  1.0000669467134824e+00  9.9999893448090282e-01  1.0043561393307274e+00  9.9999719417175292e-01  1.1182723360245634e+00  9.9998956928515914e-01  1.0095323903964057e+00  9.9999228937272511e-01  1.0200462339784324e+00  1.0000122734191317e+00  9.9997660090573071e-01  1.0000035181759128e+00  9.9999786102721799e-01  9.9999790728147586e-01  1.0000179249068470e+00  2.0058352387916019e+00  1.9723851230532961e+00  9.9999134205117823e-01  9.9998907923729619e-01  9.9999375122474088e-01  1.0003247414992604e+00  1.0007686645885936e+00  1.0016341978370225e+00  9.9997359774505068e-01  9.9986077789161265e-01  1.0004788082067102e+00  9.9999753076687825e-01  9.9995124310889083e-01  1.0001248630435418e+00  9.9998937586871994e-01  9.1895373041355344e-01  1.0049443884329952e+00  9.9929067450046960e-01  1.0000744587737067e+00  9.9999823771763219e-01  9.9999961010262839e-01  1.0000142205707305e+00  9.9695078374869250e-01  1.0111400861851654e+00  9.1280865715098503e-01  9.9998308627365862e-01  1.0001638140287004e+00  9.7543698221654351e-01  9.9999700690577742e-01  2.5571597174657890e-01  9.9841501881844019e-01  9.9999257924082974e-01  9.2753534296027473e-01  1.3381423246914648e+00  9.9999226952295384e-01  1.0008586263833403e+00  9.9999108830550520e-01  9.9999355047320515e-01  9.9990521123315323e-01  9.9997757279004040e-01  1.0001349559749542e+00  1.0000001618347643e+00  1.0000005574342488e+00  1.0036917605346161e+00  1.0000429518349296e+00  1.0000120552374656e+00  1.0000094209847874e+00  1.2750832738811442e+00  1.0000339891973427e+00  9.9869628897053209e-01  9.9998601954597333e-01  9.9991501832328067e-01  1.0000025692638044e+00  9.9999117297219775e-01  1.0006454618402212e+00  9.9975958892206163e-01  7.4881562442438998e-01  7.0722950838827736e-01  9.9952550597087209e-01  1.0000420725699273e+00  9.9999996134329161e-01  9.9999708448030067e-01  1.0003048405222743e+00  1.0000009034773147e+00  9.8221093014246053e-01  9.6817372169593319e-01  1.0081493048766599e+00  9.9999138986039349e-01  1.6211950131292636e+00  1.0484850107774708e+00  1.1670439970704536e+00  9.9999934348602693e-01  1.0000018702093627e+00  9.9998325229408391e-01  6.3790742894327312e-01  1.0023865608638924e+00  9.9995061264821083e-01  1.0001791565823432e+00  1.0001214846473290e+00  1.0018569900192176e+00  9.9999542269357400e-01  9.9999240387697530e-01  9.9997472236490714e-01  9.9999668310828771e-01  9.9999998584917349e-01  9.9999741940163567e-01  1.0002124418217893e+00  2.1607732814680639e-01  9.9999123086532349e-01  9.8710106335143921e-01  1.0000005746357343e+00  9.8046131297259675e-01  1.0001164370438274e+00  9.9999999994912347e-01  1.0000922770307910e+00  9.9999903017693392e-01  9.8093348512033807e-01  9.9789571780137409e-01  1.0000799810920240e+00  1.0000900253737006e+00  1.0000946538510844e+00  9.9997741620060676e-01  9.9999441857737292e-01  1.0000041555457004e+00  1.0000005173785473e+00  1.0686607258396563e+00  1.0000021419961713e+00  1.0398924893908958e+00  9.9998565936573491e-01  9.9995039616343062e-01  1.0519673150755018e+00  1.4338844119808218e+00  9.7083415442827303e-01  1.0893440423698371e+00  1.1836583295773213e+00  9.9997253579408585e-01  9.9999113474974066e-01  9.9999495452070042e-01  1.0015247529236231e+00  9.9999955974900789e-01  9.9998108313868705e-01  9.9999970635956126e-01  9.9999221992269149e-01  1.0001010724549320e+00  9.9999514686401836e-01  9.9999243784289327e-01  1.0023003828608879e+00  1.0003348235142195e+00  1.0000013815708739e+00  1.0018328400510812e+00  1.0044594858381053e+00  1.0751507341807001e+00  1.5069135670294376e+00  9.9995528424989222e-01  9.9848189818963717e-01  9.9897676608082131e-01  9.9897984577120258e-01  9.9992434051806067e-01  1.0000027088424368e+00  9.9999488268260928e-01  1.1376421374937611e+00  1.0126453505885080e+00  9.9761083862912781e-01  9.9758098418826480e-01  1.0000088807321477e+00  5.9580354563140581e-01  9.9998580425098138e-01  1.0014909722251102e+00  1.0004356525307014e+00  1.0009103492904372e+00  1.7717178689210535e+00  9.9999313665129119e-01  1.0597262618579268e+00  1.0000190026135836e+00  1.0137667336031622e+00  9.4832369959393770e-01  9.9999132507786426e-01  9.9165053640305012e-01  1.0000075879675503e+00  1.0023382230517768e+00  1.0618779922775659e+00  1.0089963440882366e+00  9.9876370458639652e-01  9.9999413008135318e-01  9.9998053600515657e-01  1.0000232307514736e+00  9.9999990883291823e-01  1.0031866279168298e+00  9.9999747768963276e-01  9.9999530652333368e-01  1.0111807517315667e+00  1.1403559580127263e+00  9.9999938579215775e-01  9.9999196745648899e-01  1.8480322763832950e+00  1.0005193082124211e+00  1.0001576963456753e+00  1.0034183356437771e+00  1.0287669517974565e+00  6.6075655981941250e-01  1.3835327275486384e+00  8.0723085416657203e-01  6.8815457514715928e-01  9.9999402072410948e-01  9.9999080074697633e-01  9.9999995394976193e-01  1.0000060944078797e+00  9.9420482055004122e-01  1.0000176196069055e+00  1.0004211638176428e+00  9.9999947883277174e-01  9.9996270226735107e-01  9.9999110865660090e-01  1.0000015131899334e+00  9.9962447531458187e-01  9.9999999449797683e-01  9.9999774645322792e-01  9.4314663003380195e-01  9.9999998956073033e-01  9.9999565656094247e-01  1.0009634346217784e+00  9.9854976581030330e-01  9.9999212502549761e-01  9.9999246756735827e-01  8.9305405519852343e-01  9.9765256719261775e-01  9.9999253278812406e-01  9.9976546767770313e-01  1.0002800181723062e+00  9.9999915748227430e-01  9.9980479992920068e-01  9.9987416138541851e-01  9.9999540502306328e-01  9.9878285519353882e-01  1.0000001521090851e+00  9.9999102300559450e-01  1.0012970601737057e+00  1.0037305193634602e+00  1.0000042059681979e+00  9.9997264892240878e-01  9.9685375104854579e-01  1.0000813284679251e+00  1.0000481203616167e+00  1.0000524446175814e+00  9.9999354549309361e-01  9.9999545860144878e-01  9.9999456307281154e-01  9.9999796883458514e-01  9.9999763997562396e-01  4.1173743625931658e-01  3.9184042085543386e-01  9.9999199846774112e-01  9.9999995732447877e-01  1.0000081496051076e+00  9.9999110687705006e-01  9.9999085690250178e-01  1.0000001223509456e+00  1.9227584758596523e+00  1.0854109623398831e+00  1.8798533813831531e+00  1.0003963964208695e+00  9.9999288496976013e-01  1.0004914363444846e+00  9.9999338378109215e-01  9.9095588001624302e-01  9.9999571813772870e-01  9.7843102852459796e-01  9.9769529159305470e-01  9.9706374981157408e-01  9.9999603311468166e-01  9.9951643150542702e-01  9.9901523387410196e-01  9.3600177350189839e-01  8.5072693435074331e-01  9.9999435832724615e-01  9.9999193119118313e-01  9.9999095694360007e-01  1.0223478703864328e+00  9.9230438487904016e-01  1.0000007127544741e+00  9.9997135078985455e-01  1.0013271824517580e+00  1.0007569930302842e+00  9.9997634773675759e-01  1.0006407119742740e+00  9.9996316439173416e-01  9.9999107632071604e-01  9.9999080741967183e-01  9.9999101533065582e-01  1.0000046619336593e+00  9.9931814337240321e-01  9.9999907377192410e-01  9.9999995753990945e-01  9.9999997151722508e-01  9.9690411661180089e-01  9.9979715949475811e-01  1.0353967739574559e+00  1.0026796712609098e+00  9.9998697154906224e-01  9.9996928698886112e-01  9.9988128210295057e-01  9.9992942505925186e-01  9.9999996074573205e-01  1.0033773900773604e+00  9.9965699711955802e-01  1.4023530833128786e+00  1.5484854279972355e+00  1.5070869979170065e+00  1.3971612349826548e+00  9.9999076953873178e-01  9.9999980275448663e-01  9.9999108570731865e-01  1.0000035456806087e+00  9.9998768666338200e-01  9.9999465404569554e-01  9.9773505851828703e-01  9.9999990008062978e-01  9.9771814674635872e-01  9.9999244302556223e-01  9.8679487632338569e-01  1.0000211012032811e+00  9.9985844064231566e-01  1.0000879038286590e+00  1.0000297393037310e+00  1.2101491745113981e+00  9.9999387072857493e-01  1.6735585310108505e+00  1.4419212055782684e+00  1.0000186194587388e+00  1.0000238534769124e+00  9.9785225624098328e-01  9.9999793868796538e-01  9.8661706083612333e-01  1.0000078408010546e+00  8.1852918269013020e-01  1.0011409039837493e+00  1.0000226175764961e+00  9.9999728407694111e-01  9.9999077398326430e-01  9.9999424334274789e-01  2.2181890776733049e+00  2.0026179824950265e+00  2.3145095023764388e+00  1.1945931788656390e+00  9.9999081788405964e-01  9.9999101429875603e-01  9.9999792298112611e-01  3.9276335270005608e-01  9.9999789654750859e-01  1.2952962018914178e+00  9.9999104213405776e-01  9.99991897