<?xml version="1.0"?>
<VTKFile type="UnstructuredGrid"  version="0.1"  >
<UnstructuredGrid>
<Piece  NumberOfPoints="2912" NumberOfCells="5086">
<Points>
<DataArray  type="Float64"  NumberOfComponents="3"  format="ascii">-20 2.5 0  -20 0 0  -1 0 0  -0.9996988186962042 0.02454122852291233 0  -0.9987954562051724 0.04906767432741797 0  -0.9972904566786902 0.07356456359966773 0  -0.9951847266721968 0.09801714032956083 0  -0.99247953459871 0.1224106751992163 0  -0.989176509964781 0.1467304744553618 0  -0.9852776423889412 0.1709618887603012 0  -0.9807852804032304 0.1950903220161286 0  -0.9757021300385285 0.21910124015687 0  -0.970031253194544 0.2429801799032641 0  -0.9637760657954398 0.2667127574748985 0  -0.9569403357322088 0.2902846772544624 0  -0.9495281805930367 0.3136817403988914 0  -0.9415440651830207 0.3368898533922203 0  -0.9329927988347388 0.3598950365349883 0  -0.9238795325112867 0.3826834323650899 0  -0.9142097557035307 0.4052413140049899 0  -0.9039892931234433 0.427555093430282 0  -0.8932243011955152 0.4496113296546069 0  -0.8819212643483549 0.4713967368259979 0  -0.8700869911087113 0.4928981922297841 0  -0.857728610000272 0.5141027441932218 0  -0.8448535652497071 0.5349976198870972 0  -0.8314696123025453 0.5555702330196022 0  -0.8175848131515836 0.5758081914178454 0  -0.8032075314806448 0.5956993044924335 0  -0.7883464276266062 0.6152315905806269 0  -0.773010453362737 0.6343932841636455 0  -0.7572088465064846 0.6531728429537766 0  -0.7409511253549589 0.6715589548470186 0  -0.7242470829514668 0.6895405447370671 0  -0.7071067811865475 0.7071067811865476 0  -0.6895405447370669 0.7242470829514669 0  -0.6715589548470184 0.740951125354959 0  -0.6531728429537765 0.7572088465064847 0  -0.6343932841636454 0.7730104533627371 0  -0.6152315905806267 0.7883464276266063 0  -0.5956993044924334 0.8032075314806449 0  -0.5758081914178453 0.8175848131515837 0  -0.555570233019602 0.8314696123025455 0  -0.534997619887097 0.8448535652497072 0  -0.5141027441932217 0.8577286100002721 0  -0.492898192229784 0.8700869911087115 0  -0.4713967368259977 0.881921264348355 0  -0.4496113296546067 0.8932243011955152 0  -0.4275550934302819 0.9039892931234434 0  -0.4052413140049897 0.9142097557035307 0  -0.3826834323650897 0.9238795325112867 0  -0.3598950365349882 0.9329927988347388 0  -0.3368898533922199 0.9415440651830208 0  -0.3136817403988914 0.9495281805930367 0  -0.2902846772544622 0.9569403357322089 0  -0.2667127574748983 0.9637760657954398 0  -0.2429801799032639 0.970031253194544 0  -0.2191012401568697 0.9757021300385286 0  -0.1950903220161282 0.9807852804032304 0  -0.1709618887603012 0.9852776423889412 0  -0.1467304744553616 0.989176509964781 0  -0.1224106751992162 0.99247953459871 0  -0.09801714032956065 0.9951847266721969 0  -0.07356456359966733 0.9972904566786902 0  -0.04906767432741801 0.9987954562051724 0  -0.02454122852291214 0.9996988186962042 0  6.123233995736766e-17 1 0  0.02454122852291226 0.9996988186962042 0  0.04906767432741813 0.9987954562051724 0  0.07356456359966745 0.9972904566786902 0  0.09801714032956077 0.9951847266721968 0  0.1224106751992163 0.99247953459871 0  0.1467304744553617 0.989176509964781 0  0.1709618887603014 0.9852776423889412 0  0.1950903220161283 0.9807852804032304 0  0.2191012401568698 0.9757021300385286 0  0.242980179903264 0.970031253194544 0  0.2667127574748984 0.9637760657954398 0  0.2902846772544623 0.9569403357322089 0  0.3136817403988916 0.9495281805930367 0  0.3368898533922201 0.9415440651830208 0  0.3598950365349883 0.9329927988347388 0  0.3826834323650898 0.9238795325112867 0  0.4052413140049899 0.9142097557035307 0  0.4275550934302822 0.9039892931234433 0  0.4496113296546066 0.8932243011955153 0  0.4713967368259978 0.8819212643483549 0  0.4928981922297841 0.8700869911087113 0  0.5141027441932217 0.8577286100002721 0  0.5349976198870973 0.844853565249707 0  0.5555702330196023 0.8314696123025452 0  0.5758081914178453 0.8175848131515837 0  0.5956993044924335 0.8032075314806448 0  0.6152315905806268 0.7883464276266062 0  0.6343932841636455 0.773010453362737 0  0.6531728429537768 0.7572088465064845 0  0.6715589548470183 0.7409511253549591 0  0.6895405447370669 0.7242470829514669 0  0.7071067811865476 0.7071067811865475 0  0.724247082951467 0.6895405447370668 0  0.7409511253549591 0.6715589548470183 0  0.7572088465064846 0.6531728429537768 0  0.773010453362737 0.6343932841636455 0  0.7883464276266063 0.6152315905806268 0  0.8032075314806449 0.5956993044924334 0  0.8175848131515837 0.5758081914178453 0  0.8314696123025452 0.5555702330196022 0  0.8448535652497071 0.5349976198870972 0  0.8577286100002721 0.5141027441932217 0  0.8700869911087115 0.492898192229784 0  0.881921264348355 0.4713967368259976 0  0.8932243011955153 0.4496113296546065 0  0.9039892931234433 0.4275550934302821 0  0.9142097557035307 0.4052413140049899 0  0.9238795325112867 0.3826834323650898 0  0.932992798834739 0.3598950365349881 0  0.9415440651830208 0.3368898533922201 0  0.9495281805930367 0.3136817403988915 0  0.9569403357322088 0.2902846772544623 0  0.9637760657954398 0.2667127574748984 0  0.970031253194544 0.2429801799032639 0  0.9757021300385286 0.2191012401568698 0  0.9807852804032304 0.1950903220161282 0  0.9852776423889412 0.1709618887603012 0  0.989176509964781 0.1467304744553617 0  0.99247953459871 0.1224106751992162 0  0.9951847266721969 0.0980171403295606 0  0.9972904566786902 0.07356456359966743 0  0.9987954562051724 0.04906767432741801 0  0.9996988186962042 0.02454122852291229 0  1 0 0  20 0 0  20 2.5 0  0 2.5 0  -10 2.5 0  10 2.5 0  -10.5 0 0  -5 2.5 0  10.5 0 0  5 2.5 0  -5.75 0 0  5.75 0 0  -15.25 0 0  -15 2.5 0  15.25 0 0  15 2.5 0  -17.625 0 0  -17.5 2.5 0  17.5 2.5 0  17.625 0 0  12.5 2.5 0  12.875 0 0  -12.5 2.5 0  -12.875 0 0  -2.5 2.5 0  2.5 2.5 0  -8.125 0 0  -7.5 2.5 0  8.125 0 0  7.5 2.5 0  -3.375 0 0  3.375 0 0  -18.75 2.5 0  20 1.25 0  16.4375 1.19375 0  -16.25 2.5 0  13.75 2.5 0  -14.0625 0 0  -11.6875 0 0  11.6875 0 0  8.75 2.5 0  -8.75 2.5 0  6.9375 0 0  6.25 2.5 0  -6.25 2.5 0  -9.3125 0 0  -6.9375 0 0  9.3125 0 0  11.25 2.5 0  -11.25 2.5 0  3.75 2.5 0  4.5625 0 0  -4.5625 0 0  -3.75 2.5 0  -13.75 2.5 0  14.0625 0 0  -16.4375 0 0  -20 1.25 0  -18.8125 0 0  18.75 2.5 0  -18.21875 1.2359375 0  18.125 1.278125 0  -15.84375 1.2125 0  -14.375 1.30859375 0  14.65625 1.203125 0  2.1875 0 0  -2.1875 0 0  13.125 1.315625 0  3.125 1.315625 0  -3.125 1.315625 0  -12.28125 1.1890625 0  -5.15625 1.184375 0  11.09375 1.184375 0  5.625 1.325 0  -10.97262068800044 1.220713793599868 0  9.375 1.32734375 0  -6.875 1.32734375 0  -9.67626828410207 1.24449497187193 0  8.061334925608099 1.312208731402025 0  -8.188665074391901 1.312208731402025 0  -1.25 2.5 0  1.25 2.5 0  4.37465139623265 1.41327350462657 0  16.25 2.5 0  6.84375467392576 1.430449641528851 0  -1.846573640185365 1.334702047669377 0  1.846573640185365 1.334702047669377 0  -17.02955351149946 1.396129584721571 0  16.4375 0 0  18.8125 0 0  -13.31314667860176 1.511193493282891 0  -4.122005747945582 0.961844908681634 0  12.12799425205442 0.961844908681634 0  15.54930641305724 1.660405980876393 0  19.0578783583929 0.9559530595267438 0  8.71875 0.6864560603786576 0  -7.53125 0.6864560603786576 0  -0.6257799091428727 1.819008129832856 0  0.6257799091428734 1.819008129832855 0  6.291331569065717 0.7194652423646902 0  -19.11204717950418 0.9044926794710327 0  -4.488713231834613 1.772186102355655 0  11.76128676816539 1.772186102355655 0  -19.28185607205105 1.781856072051052 0  19.30868080343342 1.808680803433421 0  9.90625 0.6371857066656857 0  -6.34375 0.6371857066656857 0  3.796921710049233 0.7617406159238448 0  7.392020585015773 0.7480839107774819 0  -8.910372062800235 0.7929553447587234 0  10.2506781820361 1.451853913138859 0  -5.999321817963904 1.451853913138859 0  4.957643119381741 0.7716423099297361 0  17.29984375 0.8640625 0  15.41193625859067 0.8279888354083842 0  -13.72251704931534 0.7728002662082776 0  16.875 2.5 0  17.12178336313261 1.690954734835967 0  -11.64001625260176 1.74572103154608 0  2.477726735235857 0.7850262278604345 0  13.46875 0 0  13.765625 0.7802887470308788 0  -2.78125 0 0  -2.477726735235857 0.7850262278604346 0  -10.33383379274331 1.744431431923121 0  13.91957519050334 1.653419259628842 0  -15.08147780274903 0.8341506893754731 0  -15.14066649024666 1.671962869821843 0  -8.950686484882164 1.678622661163363 0  -17.55392917606836 0.794731598412167 0  -16.80247533599675 0.6688259240674158 0  -12.94289066923278 0.7766744225472476 0  -9.90625 0 0  -10.31601468672093 0.7730817089126454 0  -18.21875 0 0  -12.28125 0 0  -17.68515668569534 1.768907656575843 0  18.21875 0 0  10.85059123027421 1.880344717307101 0  -5.399408769725794 1.880344717307101 0  -3.738137326223278 1.749164834446819 0  -3.125 2.5 0  12.46235897590077 1.601301060091387 0  -11.09375 0 0  -11.61661448001209 0.7781698802173554 0  -15.625 2.5 0  -1.764022608759088 0.6027229563180789 0  1.59375 0 0  -8.125 2.5 0  8.125 2.5 0  8.713468311289519 1.727645658498745 0  9.375 2.5 0  -7.536531688710481 1.727645658498745 0  -6.875 2.5 0  14.375 2.5 0  17.78381794101733 1.874391370085592 0  18.59891476281433 1.80649740393129 0  -18.58835555265984 1.824268641341969 0  1.806126122135773 0.6510673837470153 0  -16.875 2.5 0  -16.36681393636619 1.755298393865037 0  -16.13072438662071 0.6014017614895231 0  -13.92460230791385 1.83195710210235 0  -14.40198779087891 0.6105385965811564 0  20 0.625 0  19.40625 0 0  14.6875 1.888836596385542 0  14.65625 0 0  12.78248197181444 0.6991460920542635 0  -3.467518028185561 0.6991460920542635 0  13.125 2.5 0  2.491957142932539 1.738660596534321 0  3.125 2.5 0  1.875 2.5 0  3.718973573227002 1.75927763286174 0  -2.491957142932539 1.738660596534321 0  -1.875 2.5 0  -9.375 2.5 0  6.2001972846108 1.772767401802766 0  5.625 2.5 0  5.027483518098582 1.760895488350309 0  5.625981449127788 0.6566963631252629 0  -12.30101114679273 1.859484693920165 0  9.742489932362783 1.884363450023167 0  -6.507510067637216 1.884363450023166 0  1.13492303295015 1.283502262067074
[...]
<PointData  Scalars="f_6765490"> 
<DataArray  type="Float64"  Name="f_6765490"  format="ascii">-5.4717646864414916e-05  -1.6647151635557658e-05  -2.4467385777524656e-05  -3.6180875011111042e-05  9.9522711618357177e-06  4.6711540753087274e-05  4.7751104400900432e-05  -6.8289851171419929e-07  1.0921483071726261e-04  1.2475550236681860e-04  1.5231481698387101e-03  2.8203119231323974e-04  1.7160337658980664e-04  8.1613014067071773e-05  4.0119553346472389e-06  5.7308241460945962e-06  -7.1475558964572907e-07  1.2225075685086173e-05  3.3464013469212172e-05  9.7552951762668339e-06  1.4865704675658853e-05  8.9033749098754963e-06  1.9701100908391275e-05  2.2329891508070518e-05  1.1900451647054426e-05  2.3336660823741371e-05  6.8036946610316204e-06  3.4920685972593904e-05  1.0651525503160830e-05  5.2979743893848534e-05  2.2342435998352270e-05  1.0898352617492274e-05  8.3956075006679891e-06  5.5319207230773635e-05  3.8566547367198343e-05  1.5137560426111938e-05  7.8116858736487744e-05  3.0993611499372547e-05  2.3737952129389884e-05  4.6333157378010362e-05  3.8160838758604042e-05  3.1457349291303557e-05  3.5303069807024274e-05  6.5743294925046716e-05  7.6333718124580935e-05  7.9324366004012445e-05  9.6664271375598040e-04  7.3856333718938706e-05  4.7458072749699696e-05  2.7170315961932791e-05  5.8846125895358231e-05  6.4778418976435139e-05  3.0725576541287640e-05  3.5011206362628673e-05  7.5527776113712547e-05  6.4659082233837448e-05  6.5860920217853072e-05  5.6884452166836965e-05  2.5431544757864145e-05  3.1224739626859946e-05  3.9172223362609919e-05  2.7992001246645164e-05  4.1588343458596893e-05  1.8336802856629606e-05  1.8152541576853854e-05  1.8107529235578431e-06  1.0110676761520829e-06  -6.3272309530267028e-06  4.2328790826373475e-05  2.2028586296578594e-05  -2.7494032058414826e-05  -3.4106592851301683e-05  -6.1329722159499730e-05  -3.7905951778524826e-05  -3.9622870451811299e-05  -5.9371967552435081e-05  -5.8570994889300781e-05  -1.0903890085446229e-05  -1.8906183172984767e-03  -8.4513085171897742e-05  -6.6012016370211031e-05  -3.4598682606624223e-05  -3.9857456943701133e-05  -3.7943336904333701e-05  -8.0166933275773426e-05  -7.6277082727351365e-05  -7.7296338835503343e-05  -9.1187004131317206e-06  -4.6263542667590213e-05  -5.1222693766507762e-05  -4.4369344034550422e-05  -3.3298482449270148e-05  -3.6767626675674680e-05  9.6662696673500062e-06  -1.0523084788304565e-04  -2.5252390318388773e-05  -2.8916948972492942e-05  -6.3359379928287074e-05  -4.4638935800463985e-07  -4.1481714478579481e-05  -4.5256440311987720e-06  -2.9265156904668408e-05  1.1723147142292353e-05  -5.0549533055117807e-05  -4.6777890376795367e-06  -2.3384227928125201e-05  -2.2895470324476854e-05  -2.6050890757034210e-05  -3.6461671906251241e-05  2.1468279677683168e-05  -2.9951309899110278e-05  -1.2683798212442675e-05  -9.6912706378403100e-05  -6.9289928850554638e-05  -8.0457407667764000e-05  -7.2166607100142732e-04  -4.9923821885413510e-05  -6.2607339677419308e-05  1.9816472907170304e-06  -2.0371428060864063e-06  4.0318582282400549e-05  -8.2141348377314245e-05  -4.2195530054194864e-05  -4.5550537048507495e-05  2.8726689791041586e-05  5.1326042461948138e-05  7.5731946436445515e-05  3.3802994274082879e-06  -3.5928812992105974e-05  -1.5625627404080343e-05  3.2623426010955383e-05  3.0278909461417197e-09  -1.2439061468312571e-09  -6.1156915701275575e-03  -1.2811749037552835e-08  -4.5138897151059606e-07  -1.7099228760972424e-08  -4.2584974511655099e-04  1.1911262097828139e-07  3.4868402000263977e-04  2.3231945254417899e-05  -1.8676917278654268e-04  -1.7571667895124617e-06  1.1616625869792894e-05  -6.0913537339447180e-11  -1.4093873572934959e-09  1.7469024684231880e-06  5.2027458012810846e-05  -9.7576035142317464e-10  3.8793817204512504e-10  -7.3545988251208067e-08  2.3484101326522442e-08  1.5036764363591061e-07  5.2296258323750573e-07  -1.0712804294326297e-02  5.1044091819977188e-03  -5.0516570856670498e-06  -4.1191237599542440e-06  -9.7838587958193546e-06  2.1050962665767163e-05  1.8830397843301028e-03  -1.2057190625000599e-03  -1.8788558889773501e-05  -6.2833820738380963e-09  -7.0815084147978217e-10  2.1807663963541428e-05  -3.8063599705499053e-09  -1.8696768213444916e-06  -9.5863127322626154e-10  -1.3132520929063657e-09  3.3853304499738800e-07  -6.0564484552204220e-07  -3.6072006129097829e-05  7.0107817008462767e-05  -2.9903394065462510e-05  -7.6792936134768826e-07  -2.6079708243271500e-05  -2.4600285725751622e-07  -2.6972443445251211e-07  3.7639569675085970e-08  2.4100477254503281e-03  -7.5760854978494793e-04  2.9649830565523102e-04  -1.8411643278739100e-03  1.6628918351699374e-06  2.8070652921113039e-09  -6.5223516450566735e-06  4.2617081954437883e-04  2.0348304297444887e-05  -1.1749810969553905e-09  -1.0520900899533595e-03  -1.7811042356707613e-08  -4.1715860734696411e-04  -1.3005462069841568e-04  4.6025901177515444e-08  -5.5877070019340579e-03  5.4965593075050490e-03  5.7068979858940220e-07  -1.0243826811662296e-01  1.0989341610273885e-01  -1.1615003387844404e-05  9.0022598392581494e-03  8.6383700724235038e-06  -7.4660953373950397e-03  -9.3461500942705987e-07  1.7528218599425154e-05  7.5378934669503969e-04  7.6740488910793832e-06  -2.0047320085703487e-04  1.0248719280472570e-04  -7.3203652869451496e-03  4.9118191438781919e-03  -2.7646405045233895e-02  3.2343827920711415e-10  -1.4184017131581954e-03  3.6948321284039626e-01  -3.7985608657564707e-01  -8.5998720722018946e-04  2.9281210138262013e-10  3.0057974175665601e-09  -3.4700174967097698e-05  3.7984323832146727e-02  2.6532833937363019e-06  4.9335376095675531e-10  -3.9648500497010822e-08  -3.5738126124517571e-05  3.3566986646009988e-04  2.7106265755513420e-01  -2.5044462663331674e-01  -3.4341389946566862e-03  1.6547068849466417e-03  1.1332522310972946e-02  2.0974982300859052e-06  1.4237650284165968e-03  1.8109776561930708e-09  1.6584141584326195e-05  1.6955005118775561e-03  -5.7246603751734029e-02  -7.3421749355568136e-04  3.9668427256330684e-05  1.5469154760996106e-05  2.3183183913997401e-03  -1.7415418434985275e-02  -7.8065541255512122e-09  7.3696745202473428e-09  -6.9374837786705668e-05  4.2846882750784955e-10  -6.5790062024270158e-09  -2.1820572541843516e-06  -2.0230476906648842e-01  -1.0915420365547771e-08  2.2249855480767811e-07  2.7280080933564164e-03  2.0689266170015311e-01  4.1390339029772338e-07  1.0140535583795875e-07  -2.3450796351575311e-04  -1.7561395440808750e-04  1.5692968839004870e-05  -9.1079212267962601e-04  -5.9809865681627263e-04  -2.8871860605600481e-05  2.1414825657897867e-07  2.0813677977495577e-06  -2.6455245576977594e-06  -3.0537227323921362e-07  -9.1326439602047596e-04  -5.1702300199078681e-10  4.5533576915719178e-06  2.4790187512794201e-03  3.1013351766415998e-02  -4.2559616084207061e-03  1.1056644910982278e-06  7.6204042038190431e-08  -4.0327269471976441e-06  1.0099949405630218e-05  2.9837304195933584e-01  -1.6522125936253634e-04  -4.0370087164371617e-06  5.5507497655693222e-06  -5.6119743335667207e-06  -8.1728937599654209e-07  1.5201212747925773e-04  -1.9933252635329371e-05  -7.4674121585625424e-10  -5.2623143687324624e-09  -9.0661003879629509e-09  -9.5414165190744191e-04  -3.1801280667880671e-01  2.2909003896958619e-05  -3.9080861915074768e-04  -3.8617742379299015e-04  -4.1327095647701455e-05  -1.1517630408795045e-04  -5.3103340336639305e-09  1.2400024639912048e-09  1.2485107548521978e-08  -4.4622425922432678e-09  9.6929757963790515e-07  7.4482072626205612e-02  -9.7143582979206667e-09  -1.3653201836071480e-01  2.2390965899549264e-03  7.0454029107333976e-03  -3.3904229385061602e-02  1.3604971990210107e-01  -8.7005295678604638e-03  -2.1155803792217032e-07  -1.9466749538697441e-03  3.7264397610835888e-04  -8.6361272091694356e-03  -7.5030058997953260e-03  -4.8530577052910680e-06  1.0813513719981417e-05  4.9055367789046557e-04  -5.3468807994125789e-01  5.8740809475968558e-01  4.7990363304262553e-06  1.5086434537396427e-02  1.2323024955192520e-05  4.5236395445936431e-03  5.5660045990132728e-10  -9.6155037955375264e-02  -4.8584130104120300e-10  1.6281237749920925e-09  1.2178786839204617e-04  -2.1432738121127242e-04  -3.0359515310506339e-04  1.9594140365962001e-01  -2.0969494216626447e-01  -4.4104456362976896e-07  -2.2876023201818596e-09  -9.9681468884250902e-04  1.8075015403682147e-06  1.1384500879413278e-05  -1.0363508668751361e-08  6.5928992563423552e-05  2.1229587093471575e-07  -2.4969646487347510e-04  -1.8875472274047338e-05  3.6070107513134760e-04  1.9359210877121755e-06  3.7417486023522885e-05  1.1136119967956075e-03  -8.2155426922278993e-03  1.2091594993214940e-08  1.6528735921442616e-09  2.2465276869169706e-07  -3.6532963961932274e-04  -7.1465493771976683e-08  -1.2044927126241757e-03  -4.7508352903728448e-03  -7.2774659585867615e-03  4.6550122032987679e-10  1.3642268794410752e-03  5.0254285533663327e-09  1.6454618805518149e-10  -2.9906614579918970e-07  -4.1531319463830368e-05  -2.1375848115964718e-04  -8.7152299328981477e-07  -4.5506412131709184e-09  2.7576176326455276e-04  5.9944539593396773e-08  2.9732815014340112e-08  -6.5565056422232907e-05  2.2442611287999684e-05  -5.3909818084241004e-05  -1.1225962173892335e-05  7.2381731629242723e-04  9.3959059151521412e-06  -1.0735240850966259e-03  -4.4129392746641764e-07  -2.2189232336069910e-07  3.4811424002374752e-04  8.1900829386284073e-07  1.1518638413168439e-05  1.8311720082513818e-04  4.0239061550773923e-05  8.1809989723060652e-08  6.4299048938296018e-05  2.0036818700925435e-06  2.2430660544684195e-06  -9.3998494905874039e-07  2.1174026091883127e-06  -3.7113226952085138e-05  3.1399715102828376e-09  -4.3806016490850398e-02  2.6183844191552396e-07  4.3659558756825784e-02  -3.1655971722965039e-03  -6.1958961742020733e-04  -2.4027782952690826e-08  -2.7486075104548417e-02  -2.3189437898979244e-04  -4.0391443505875395e-04  -1.4099523106514673e-03  2.5193251866811451e-09  -9.5633520908004217e-03  -1.3576109358391227e-08  -2.3353499367616012e-05  -7.5875531118865455e-05  9.0027063403348586e-08  7.0769563210924206e-04  5.4729386980875749e-06  -8.5645330987351487e-06  -4.0319709481493785e-04  -2.4543257073328156e-04  1.8562622497835617e-02  4.7288288624652500e-06  6.4989569076055437e-02  -3.3058964400815910e-03  -1.1965583794695616e-05  2.6137346675782647e-04  -5.0427142854447933e-05  2.6290572874339627e-04  1.2273089897315064e-05  3.9641779998230046e-07  -4.9446970926372261e-04  -5.6923497572986198e-04  -3.4988093286626978e-08  2.1511396468959589e-02  2.0194368370038661e-06  1.1606513588870829e-09  1.1847137338426402e-08  -5.0990210065892383e-02  1.0366615452296470e-01  -1.4416113821848448e-02  -2.2991871491614141e-08  -2.0884959591636309e-08  5.0652665654103696e-07  5.8800704084831712e-03  -1.1916437521999476e-03  5.1099922192309626e-02  -1.1819133084714842e-01  7.9018233739841196e-07  2.3664577647771642e-05  -5.1033492858216447e-06  -2.2005623262524400e-08  2.0883269467251748e-07  2.7533317594548284e-07  1.6158058235181352e-08  -5.8320838735043553e-05  1.2713601851685889e-07  -4.1820235407564793e-01  1.4153435519699581e-06  -1.7709200567273081e-01  2.4912881895516312e-01  6.7787323990352549e-04  3.8101303298988930e-03  2.0168815734192495e-03  -4.4269785747083011e-04  -3.4606766589701027e-09  4.8141596172540546e-01  1.6646422955911830e-01  -1.8076642857433720e-01  1.9905251954003325e-01  -2.5371157882252393e-01  -2.2160422345867055e-05  -1.2627719565055557e-04  1.5773785324530416e-09  -5.8626537432575889e-03  -2.0338250800087638e-09  2.1683706837647419e-06  -2.7553599812830975e-09  -6.7968054961292824e-09  3.8475757641286822e-07  6.4429690986553819e-06  6.7664341541368864e-03  5.3957970464054122e-04  3.0997453706148233e-06  2.7908078040760659e-03  1.7571927336074019e-06  5.5445058511807704e-08  -5.3527915343179336e-05  1.3347039397800564e-04  2.8688914687922972e-03  -2.0259618966554202e-04  -4.0777298941724112e-06  -6.7748906726160956e-04  -2.6884920439884307e-03  -5.8927594888919712e-03  -1.4256137238251150e-06  -2.1476355663358000e-04  -2.5019055650752276e-09  2.0780143572931155e-02  4.9529123639219086e-06  9.6453793615611880e-03  2.4949021877795664e-06  2.7827389232249578e-02  7.9878290949166503e-05  1.9592676236140908e-05  1.8611379034243982e-05  -1.7183087758688896e-10  -2.6212255007034041e-09  3.6025549931201022e-05  6.2699734722579684e-02  -2.4302934796341442e-02  -3.2603862467662621e-08  1.3903671339457454e-05  1.8487410525002147e-05  2.9858168783706983e-03  1.5356765613243398e-03  5.0542966813588441e-03  1.9273596032941281e-05  5.3685208005542105e-04  -2.0605396846002812e-04  1.1364717625261858e-08  4.9513488336562707e-05  8.1769497691005496e-05  6.3660331104403146e-06  3.2199729831744839e-01  5.6197321091028202e-03  -5.1862610132781789e-04  -1.4079031044166442e-03  3.7788173783338367e-06  2.0539708918823470e-05  9.7966771209756402e-06  1.9552549454214052e-03  -7.9357160919748121e-02  -3.5845974478979213e-02  4.6637140512734579e-03  -2.7870875791649569e-02  -1.3306627589104138e-02  3.7217759072181205e-08  2.3050468057918139e-01  -7.9417783176354657e-04  1.0664552516926975e-06  3.2187104540913579e-02  2.1142265717550615e-01  -3.2354258590373907e-08  -1.1774765025236985e-04  4.7762640863937971e-08  2.4766135187964489e-07  -3.3217425752685842e-04  -1.7763129673011412e-04  -1.8074215469210389e-04  -4.1866889832466895e-07  -1.5059701659335613e-06  2.7124729528187250e-03  4.4076619367354784e-05  4.8059208707737626e-06  1.3813516210536852e-05  -4.8820140906796733e-01  8.6913238833201086e-06  6.5413557087487929e-04  -1.0984022966885894e-04  -3.8005376661604670e-05  -4.8621912131913925e-05  7.1515735154696669e-09  -1.1991430513630311e-04  -3.0263258961064459e-04  1.1078457999455918e-01  -1.1127023879751796e-01  2.8542521048913828e-04  -2.6549938139601609e-06  2.2155030877195329e-09  -3.8249559073497027e-09  -2.9086446661444446e-04  6.3006659838565990e-06  1.5264497479906244e-01  -3.1863936196169867e-01  -1.7020819576230911e-03  2.1066979795904501e-07  4.8840695632818409e-01  1.1588515971670562e-02  -3.7786303609688619e-02  1.3046589518662764e-08  2.5051518470580667e-06  1.2463144209125900e-03  1.7203956938915702e-01  2.1852569621853184e-03  3.5500155333721395e-06  5.6192725684633018e-05  4.1340382041869291e-05  -3.2716168469145731e-04  6.7548118989832482e-09  -1.3364882647567613e-08  1.5526460987137253e-06  2.2340063036534128e-07  -2.0518438858363847e-07  2.1642382611490482e-09  -4.6687981679732819e-05  -1.7955363609537281e-01  1.0911594541528610e-07  -8.3352763913510791e-03  -2.6749328258169327e-06  -1.4650167683048898e-01  9.3688618603986356e-05  5.1353509677920147e-07  -1.9397794856539438e-05  1.2889947770702092e-07  -3.8128086376334075e-04  -4.2437189566007442e-02  6.1584517173287728e-05  -5.4807202446044960e-05  4.9057706773191271e-05  -9.8757481811352285e-04  -5.6886348154525179e-09  -5.2274942830150162e-06  1.6085331656416463e-07  -1.4834923330624283e-02  -1.0967716755926955e-06  -2.1635393592464268e-02  -4.2758178695600580e-04  -1.1560801672288632e-06  -4.7205738625730981e-01  -4.0025630160946818e-01  4.4400600095578009e-02  1.6662821927647464e-01  -2.5421575754155218e-01  -1.0860700893587635e-02  -7.6840018547045956e-09  -3.1641655365539269e-09  -1.0839840009083106e-03  -7.8627014753436850e-06  -1.3897892452885907e-05  -1.9284660012594922e-05  -1.9749153747628869e-08  -2.7270426318443569e-04  -8.8216293574969146e-09  3.2081136771957186e-08  -5.7538803973665714e-04  3.7625079903808983e-04  -6.6825910558742716e-05  -1.1251161955901016e-03  5.0341022426905208e-03  5.1818731388688244e-01  4.2799644127155856e-01  -2.4726088220836553e-03  -5.7124978362404804e-06  -3.4429259892807093e-04  -7.5589879957063612e-04  -7.9947620393273217e-04  -1.1833505251566244e-04  2.1804068418148910e-04  -9.9923827443851879e-02  -2.0711156918282871e-02  -1.4301542981660616e-05  -1.5928220812931283e-03  -1.1813115262570259e-05  -1.7183770244077926e-01  9.2643991063621707e-06  -7.9224687952817255e-04  -4.7572938406413719e-04  -6.2167209487459893e-04  -4.0187264899425157e-01  3.9783045194484691e-09  6.4442357007021098e-02  2.0511897644575370e-05  -2.5000747213107777e-03  -3.3024415634885139e-02  -1.0664019235594910e-08  1.1750367680313840e-04  -3.6880099579453875e-08  -3.1986898957935282e-04  -6.4665014615896368e-02  -7.4708895935576098e-03  -5.2631782893168392e-04  -1.7115860475113804e-08  9.1149167140994442e-06  -8.3833351721276543e-05  -1.5242127380361425e-07  2.1559416177619481e-03  5.6315210872786705e-08  5.6003082768291433e-07  2.8093692481736361e-03  1.0204118228612399e-01  -1.0544248068427091e-07  -5.4516050548507745e-09  4.2464174067773419e-01  -7.5736236238349596e-04  -2.8509545265455649e-04  -4.4160042861204939e-03  1.8381553247396289e-02  4.7608997716896040e-01  -2.7462812694853694e-01  -8.4118461990220827e-02  -4.7254641312864021e-01  6.7912758655674946e-07  4.0541376952470826e-09  1.6107736462431093e-07  6.5361098985995631e-06  3.4113125486171297e-03  -1.6920921333651350e-05  1.0310275985550729e-04  -6.3020858664200718e-07  4.5198013403756554e-06  -1.9019015278362963e-07  3.2546186090310537e-06  -1.4636776651821693e-04  1.0391965901948600e-09  -5.5176139110445233e-09  -1.6953431920645499e-06  2.3292893642287314e-08  -2.9757121237399203e-09  9.3518190374942359e-04  -3.3672628566086852e-04  -4.5238839870185649e-09  1.6714683342319940e-06  5.3964336015896987e-02  1.0738008905617168e-01  9.0096544147234224e-07  -4.0328329685839962e-04  -1.2842047722057891e-04  1.4017551297017438e-06  -1.5316038233039608e-06  -5.8998861325381502e-05  1.0045840549994267e-05  7.5944026314684540e-03  -4.0285650150874721e-07  -6.3141974324577909e-09  -9.4058448291537387e-04  -3.4364901964722993e-04  6.6578309379432973e-06  -4.2735887585411239e-05  2.7165318641066689e-05  -8.4120190826003492e-05  -9.7312709908400419e-06  -3.4690661901000672e-05  1.3997039091100825e-06  -4.9580303963820247e-09  2.2950077946260665e-08  2.6868417186776021e-09  3.2531603906229405e-09  3.4331840617323060e-03  -1.7854526057064518e-01  5.8286738735438707e-07  1.1708652457586280e-06  -2.3911832674688768e-06  -1.2457576474593227e-08  -1.6849499392392571e-09  5.5979141862241201e-07  -5.9544760193042182e-02  1.2811321676837015e-03  9.4205856946519742e-02  -5.8353159963612582e-05  6.6210732122073501e-06  1.3705782002843177e-02  3.5278930193235466e-06  2.4693869130310075e-02  2.5262335910645266e-06  1.1757281775386373e-02  2.7530407854211425e-04  -2.6130502042928970e-04  -1.5710405420953080e-09  -5.5050756717042412e-04  -6.0883481308183657e-06  -7.0045231115048734e-02  -5.0698391198396954e-02  -5.6989662354051354e-09  -8.5432996027828704e-10  -5.9786219836066951e-09  -1.6671880943012508e-02  -3.8662984872443041e-03  4.3077905885126877e-07  1.2951982342269964e-05  1.1956582901968345e-03  5.9426072226409889e-04  2.7892461699642432e-06  1.3098947660493187e-04  1.6016829812358300e-05  -1.9849418799119781e-09  7.2751444699826741e-10  1.4606744011299879e-09  5.6358521258469631e-06  -2.1552208858153599e-04  -7.2796928666382579e-07  3.0627873638546688e-10  -5.1108234536382966e-10  -4.9184539491608694e-03  -6.8848945596706204e-05  -1.1382787142220260e-02  5.1757851198395142e-04  2.1246775834551958e-06  -5.0788958359968440e-04  7.4921997209412739e-05  -1.1286252937193445e-04  -2.8313531904474567e-08  -5.8858314642510795e-05  4.7129163662982636e-03  1.2574039282831331e-01  -9.2734607980854450e-02  7.9280912711695517e-02  -7.4982288230568378e-02  -1.5864488623591701e-09  1.7529451630527867e-07  -2.3780817118115344e-08  -9.1382455322973880e-07  1.0342258688360740e-05  2.2057184662970762e-05  -1.0842494787366871e-01  -2.1773792193154515e-07  1.0378913306195855e-03  1.8775120497311997e-09  -1.2285564287380939e-04  -2.0930809032550888e-05  6.1173275791955332e-05  -2.0125381801742089e-05  -1.7767761474738588e-05  -3.3867419663401295e-02  -1.1057553993476216e-08  -2.8883574317822858e-01  2.9801314602638285e-01  1.2939450983247305e-04  9.4384222597572979e-06  1.1105259724372282e-03  3.9376617913674332e-06  8.1866917016675117e-03  6.8053956065303566e-06  3.2123449482009815e-03  -1.2722861052008797e-04  5.6111719