<?xml version="1.0"?>
<VTKFile type="UnstructuredGrid"  version="0.1"  >
<UnstructuredGrid>
<Piece  NumberOfPoints="2954" NumberOfCells="5142">
<Points>
<DataArray  type="Float64"  NumberOfComponents="3"  format="ascii">-20 2.5 0  -20 0 0  -1 0 0  -0.9996988186962042 0.02454122852291233 0  -0.9987954562051724 0.04906767432741797 0  -0.9972904566786902 0.07356456359966773 0  -0.9951847266721968 0.09801714032956083 0  -0.99247953459871 0.1224106751992163 0  -0.989176509964781 0.1467304744553618 0  -0.9852776423889412 0.1709618887603012 0  -0.9807852804032304 0.1950903220161286 0  -0.9757021300385285 0.21910124015687 0  -0.970031253194544 0.2429801799032641 0  -0.9637760657954398 0.2667127574748985 0  -0.9569403357322088 0.2902846772544624 0  -0.9495281805930367 0.3136817403988914 0  -0.9415440651830207 0.3368898533922203 0  -0.9329927988347388 0.3598950365349883 0  -0.9238795325112867 0.3826834323650899 0  -0.9142097557035307 0.4052413140049899 0  -0.9039892931234433 0.427555093430282 0  -0.8932243011955152 0.4496113296546069 0  -0.8819212643483549 0.4713967368259979 0  -0.8700869911087113 0.4928981922297841 0  -0.857728610000272 0.5141027441932218 0  -0.8448535652497071 0.5349976198870972 0  -0.8314696123025453 0.5555702330196022 0  -0.8175848131515836 0.5758081914178454 0  -0.8032075314806448 0.5956993044924335 0  -0.7883464276266062 0.6152315905806269 0  -0.773010453362737 0.6343932841636455 0  -0.7572088465064846 0.6531728429537766 0  -0.7409511253549589 0.6715589548470186 0  -0.7242470829514668 0.6895405447370671 0  -0.7071067811865475 0.7071067811865476 0  -0.6895405447370669 0.7242470829514669 0  -0.6715589548470184 0.740951125354959 0  -0.6531728429537765 0.7572088465064847 0  -0.6343932841636454 0.7730104533627371 0  -0.6152315905806267 0.7883464276266063 0  -0.5956993044924334 0.8032075314806449 0  -0.5758081914178453 0.8175848131515837 0  -0.555570233019602 0.8314696123025455 0  -0.534997619887097 0.8448535652497072 0  -0.5141027441932217 0.8577286100002721 0  -0.492898192229784 0.8700869911087115 0  -0.4713967368259977 0.881921264348355 0  -0.4496113296546067 0.8932243011955152 0  -0.4275550934302819 0.9039892931234434 0  -0.4052413140049897 0.9142097557035307 0  -0.3826834323650897 0.9238795325112867 0  -0.3598950365349882 0.9329927988347388 0  -0.3368898533922199 0.9415440651830208 0  -0.3136817403988914 0.9495281805930367 0  -0.2902846772544622 0.9569403357322089 0  -0.2667127574748983 0.9637760657954398 0  -0.2429801799032639 0.970031253194544 0  -0.2191012401568697 0.9757021300385286 0  -0.1950903220161282 0.9807852804032304 0  -0.1709618887603012 0.9852776423889412 0  -0.1467304744553616 0.989176509964781 0  -0.1224106751992162 0.99247953459871 0  -0.09801714032956065 0.9951847266721969 0  -0.07356456359966733 0.9972904566786902 0  -0.04906767432741801 0.9987954562051724 0  -0.02454122852291214 0.9996988186962042 0  6.123233995736766e-17 1 0  0.02454122852291226 0.9996988186962042 0  0.04906767432741813 0.9987954562051724 0  0.07356456359966745 0.9972904566786902 0  0.09801714032956077 0.9951847266721968 0  0.1224106751992163 0.99247953459871 0  0.1467304744553617 0.989176509964781 0  0.1709618887603014 0.9852776423889412 0  0.1950903220161283 0.9807852804032304 0  0.2191012401568698 0.9757021300385286 0  0.242980179903264 0.970031253194544 0  0.2667127574748984 0.9637760657954398 0  0.2902846772544623 0.9569403357322089 0  0.3136817403988916 0.9495281805930367 0  0.3368898533922201 0.9415440651830208 0  0.3598950365349883 0.9329927988347388 0  0.3826834323650898 0.9238795325112867 0  0.4052413140049899 0.9142097557035307 0  0.4275550934302822 0.9039892931234433 0  0.4496113296546066 0.8932243011955153 0  0.4713967368259978 0.8819212643483549 0  0.4928981922297841 0.8700869911087113 0  0.5141027441932217 0.8577286100002721 0  0.5349976198870973 0.844853565249707 0  0.5555702330196023 0.8314696123025452 0  0.5758081914178453 0.8175848131515837 0  0.5956993044924335 0.8032075314806448 0  0.6152315905806268 0.7883464276266062 0  0.6343932841636455 0.773010453362737 0  0.6531728429537768 0.7572088465064845 0  0.6715589548470183 0.7409511253549591 0  0.6895405447370669 0.7242470829514669 0  0.7071067811865476 0.7071067811865475 0  0.724247082951467 0.6895405447370668 0  0.7409511253549591 0.6715589548470183 0  0.7572088465064846 0.6531728429537768 0  0.773010453362737 0.6343932841636455 0  0.7883464276266063 0.6152315905806268 0  0.8032075314806449 0.5956993044924334 0  0.8175848131515837 0.5758081914178453 0  0.8314696123025452 0.5555702330196022 0  0.8448535652497071 0.5349976198870972 0  0.8577286100002721 0.5141027441932217 0  0.8700869911087115 0.492898192229784 0  0.881921264348355 0.4713967368259976 0  0.8932243011955153 0.4496113296546065 0  0.9039892931234433 0.4275550934302821 0  0.9142097557035307 0.4052413140049899 0  0.9238795325112867 0.3826834323650898 0  0.932992798834739 0.3598950365349881 0  0.9415440651830208 0.3368898533922201 0  0.9495281805930367 0.3136817403988915 0  0.9569403357322088 0.2902846772544623 0  0.9637760657954398 0.2667127574748984 0  0.970031253194544 0.2429801799032639 0  0.9757021300385286 0.2191012401568698 0  0.9807852804032304 0.1950903220161282 0  0.9852776423889412 0.1709618887603012 0  0.989176509964781 0.1467304744553617 0  0.99247953459871 0.1224106751992162 0  0.9951847266721969 0.0980171403295606 0  0.9972904566786902 0.07356456359966743 0  0.9987954562051724 0.04906767432741801 0  0.9996988186962042 0.02454122852291229 0  1 0 0  20 0 0  20 2.5 0  0 2.5 0  -10 2.5 0  10 2.5 0  -10.5 0 0  -5 2.5 0  10.5 0 0  5 2.5 0  -5.75 0 0  5.75 0 0  -15.25 0 0  -15 2.5 0  15.25 0 0  15 2.5 0  -17.625 0 0  -17.5 2.5 0  17.5 2.5 0  17.625 0 0  12.5 2.5 0  12.875 0 0  -12.5 2.5 0  -12.875 0 0  -2.5 2.5 0  2.5 2.5 0  -8.125 0 0  -7.5 2.5 0  8.125 0 0  7.5 2.5 0  -3.375 0 0  3.375 0 0  -18.75 2.5 0  20 1.25 0  16.4375 1.19375 0  -16.25 2.5 0  13.75 2.5 0  -14.0625 0 0  -11.6875 0 0  11.6875 0 0  8.75 2.5 0  -8.75 2.5 0  6.9375 0 0  6.25 2.5 0  -6.25 2.5 0  -9.3125 0 0  -6.9375 0 0  9.3125 0 0  11.25 2.5 0  -11.25 2.5 0  3.75 2.5 0  4.5625 0 0  -4.5625 0 0  -3.75 2.5 0  -13.75 2.5 0  14.0625 0 0  -16.4375 0 0  -20 1.25 0  -18.8125 0 0  18.75 2.5 0  -18.21875 1.2359375 0  18.125 1.278125 0  -15.84375 1.2125 0  -14.375 1.30859375 0  14.65625 1.203125 0  2.1875 0 0  -2.1875 0 0  13.125 1.315625 0  3.125 1.315625 0  -3.125 1.315625 0  -12.28125 1.1890625 0  -5.15625 1.184375 0  11.09375 1.184375 0  5.625 1.325 0  -10.97262068800044 1.220713793599868 0  9.375 1.32734375 0  -6.875 1.32734375 0  -9.67626828410207 1.24449497187193 0  8.061334925608099 1.312208731402025 0  -8.188665074391901 1.312208731402025 0  -1.25 2.5 0  1.25 2.5 0  4.37465139623265 1.41327350462657 0  16.25 2.5 0  6.84375467392576 1.430449641528851 0  -1.846573640185365 1.334702047669377 0  1.846573640185365 1.334702047669377 0  -17.02955351149946 1.396129584721571 0  16.4375 0 0  18.8125 0 0  -13.31314667860176 1.511193493282891 0  -4.122005747945582 0.961844908681634 0  12.12799425205442 0.961844908681634 0  15.54930641305724 1.660405980876393 0  19.0578783583929 0.9559530595267438 0  8.71875 0.6864560603786576 0  -7.53125 0.6864560603786576 0  -0.6257799091428727 1.819008129832856 0  0.6257799091428734 1.819008129832855 0  6.291331569065717 0.7194652423646902 0  -19.11204717950418 0.9044926794710327 0  -4.488713231834613 1.772186102355655 0  11.76128676816539 1.772186102355655 0  -19.28185607205105 1.781856072051052 0  19.30868080343342 1.808680803433421 0  9.90625 0.6371857066656857 0  -6.34375 0.6371857066656857 0  3.796921710049233 0.7617406159238448 0  7.392020585015773 0.7480839107774819 0  -8.910372062800235 0.7929553447587234 0  10.2506781820361 1.451853913138859 0  -5.999321817963904 1.451853913138859 0  4.957643119381741 0.7716423099297361 0  17.29984375 0.8640625 0  15.41193625859067 0.8279888354083842 0  -13.72251704931534 0.7728002662082776 0  16.875 2.5 0  17.12178336313261 1.690954734835967 0  -11.64001625260176 1.74572103154608 0  2.477726735235857 0.7850262278604345 0  13.46875 0 0  13.765625 0.7802887470308788 0  -2.78125 0 0  -2.477726735235857 0.7850262278604346 0  -10.33383379274331 1.744431431923121 0  13.91957519050334 1.653419259628842 0  -15.08147780274903 0.8341506893754731 0  -15.14066649024666 1.671962869821843 0  -8.950686484882164 1.678622661163363 0  -17.55392917606836 0.794731598412167 0  -16.80247533599675 0.6688259240674158 0  -12.94289066923278 0.7766744225472476 0  -9.90625 0 0  -10.31601468672093 0.7730817089126454 0  -18.21875 0 0  -12.28125 0 0  -17.68515668569534 1.768907656575843 0  18.21875 0 0  10.85059123027421 1.880344717307101 0  -5.399408769725794 1.880344717307101 0  -3.738137326223278 1.749164834446819 0  -3.125 2.5 0  12.46235897590077 1.601301060091387 0  -11.09375 0 0  -11.61661448001209 0.7781698802173554 0  -15.625 2.5 0  -1.764022608759088 0.6027229563180789 0  1.59375 0 0  -8.125 2.5 0  8.125 2.5 0  8.713468311289519 1.727645658498745 0  9.375 2.5 0  -7.536531688710481 1.727645658498745 0  -6.875 2.5 0  14.375 2.5 0  17.78381794101733 1.874391370085592 0  18.59891476281433 1.80649740393129 0  -18.58835555265984 1.824268641341969 0  1.806126122135773 0.6510673837470153 0  -16.875 2.5 0  -16.36681393636619 1.755298393865037 0  -16.13072438662071 0.6014017614895231 0  -13.92460230791385 1.83195710210235 0  -14.40198779087891 0.6105385965811564 0  20 0.625 0  19.40625 0 0  14.6875 1.888836596385542 0  14.65625 0 0  12.78248197181444 0.6991460920542635 0  -3.467518028185561 0.6991460920542635 0  13.125 2.5 0  2.491957142932539 1.738660596534321 0  3.125 2.5 0  1.875 2.5 0  3.718973573227002 1.75927763286174 0  -2.491957142932539 1.738660596534321 0  -1.875 2.5 0  -9.375 2.5 0  6.2001972846108 1.772767401802766 0  5.625 2.5 0  5.027483518098582 1.760895488350309 0  5.625981449127788 0.6566963631252629 0  -12.30101114679273 1.859484693920165 0  9.742489932362783 1.884363450023167 0  -6.507510067637216 1.884363450023166 0  1.13492303295015 1.283502262067074
[...]
<PointData  Scalars="f_8870"> 
<DataArray  type="Float64"  Name="f_8870"  format="ascii">-5.3322748665677296e-06  2.1147261862546519e-07  5.0245093112446043e-08  -2.3563247565520286e-07  -1.1491681264730225e-07  -2.8037714547644496e-07  -1.6595634700152709e-07  -2.2452834217909843e-07  2.9332060601202258e-08  7.8219814555096645e-08  8.1585228032058448e-06  8.4620335109910415e-07  2.5537164454907404e-07  -1.9356101446520113e-07  -4.1582555727027436e-07  -2.3969605699002153e-08  1.0568963531302659e-07  2.1626250415264101e-07  2.4305240038119333e-07  -2.3222831758528930e-07  -3.8844762665048281e-08  -3.9029039635544531e-08  -7.5336702245953155e-07  -3.8410824060715317e-08  -4.7905143046081134e-08  -6.2452534823329697e-08  -7.7808298264138582e-08  -1.6591604378547992e-07  -1.0807790138966055e-07  -9.3807683605612904e-08  -1.0963536970862257e-07  2.6963918110363783e-08  -1.1609755724616313e-07  -6.8503563340630951e-07  -1.2492515119405025e-07  -2.1390843386557833e-07  -6.2055945779597786e-07  -3.9760289762933444e-08  -7.9710230350795894e-08  -2.7051953567423571e-08  -1.3470377759635092e-07  -5.3140528472559729e-08  -1.1073744650498409e-07  4.6767958838692775e-08  7.6817398387073007e-08  2.9523084761707529e-07  1.6244813707245158e-05  -4.6406831880603728e-07  -4.7947824097897147e-08  -1.6457287017898797e-07  -2.0151664733520041e-07  -5.6209485078822507e-08  1.5993515080687027e-07  -8.4321460824833000e-08  1.8192473964814198e-07  8.9704219479982860e-08  -2.0009663165492302e-08  1.1657790919486353e-07  9.0817728856043775e-09  -7.8316616861135592e-08  2.6793454148392385e-07  -2.1267975487671471e-08  -1.3652847320029824e-07  -3.2515250536757165e-07  5.0153156167947131e-09  -1.4217584168755366e-07  -2.0926785335100627e-08  1.3491877317106293e-08  1.9557890497035163e-07  1.5707106042361134e-07  4.1881527994094376e-09  -1.1487240506946389e-07  2.1912142918427280e-07  3.1840039143121293e-08  5.2624577168198526e-08  -6.9247616226748122e-08  -1.9058612010752606e-07  1.6031662057748045e-07  -8.4309723445813389e-06  -2.4692870180884383e-07  -1.7911672551939712e-07  6.0438866977972177e-08  -9.1026722903651775e-08  5.2848422513472630e-08  1.3862045174865709e-07  5.8467158336677545e-09  -7.4262988624889217e-08  8.4043945359229605e-08  8.7254712724870729e-08  1.0684179273668864e-07  2.1512230688668342e-07  8.9154140475411612e-08  1.2008852046636696e-07  4.0428673530998906e-07  2.3999392684131756e-07  7.8532041690049096e-08  6.1294782673735972e-08  6.2441153212832953e-07  8.6877212719975840e-08  1.3452057970301482e-07  5.7656578685131436e-08  2.6228512772380480e-07  1.4872516276083285e-07  1.3957429377823900e-07  8.3014881176386986e-08  4.2694416165636769e-08  1.8527683900083274e-07  -3.5063125179135228e-07  1.9809932571472137e-08  1.9121095555746149e-08  9.6543440941095004e-08  8.2349091513394145e-09  -3.0543732405215016e-08  9.8283512871246094e-09  2.4933788035180242e-08  -8.9800645709144490e-06  3.5179948248845645e-08  8.3188006887362355e-08  6.1517803928750280e-07  -9.7716508601968292e-08  1.5043748759872191e-07  -4.2060962476505511e-07  1.4415701241916649e-07  -6.1858113801292715e-08  1.5984768453297717e-07  2.4816551638407504e-07  3.1223381587853713e-07  5.8457163337704718e-08  -1.2262447523124683e-07  -3.3062020307196233e-08  1.9765692236242754e-08  -8.6092286171580218e-09  -5.1515353783091621e-07  5.0750925665924041e-06  -2.1971615131849428e-06  1.7304058732324928e-06  -1.2125053341850157e-08  -2.5448774278048053e-06  -1.0925236373733279e-07  8.4895792279755625e-07  -1.1816605054800541e-07  -7.1749482072892410e-09  -1.8248321917459258e-09  -1.1050336601118756e-06  1.6510295214662705e-08  1.1797148514048395e-06  -2.9272656505305482e-08  -1.7670337866056808e-06  3.3994198336489351e-06  7.8912216794332382e-09  -4.5544841409353338e-07  -3.8935938065341007e-08  1.4511955128564244e-06  -1.1572698145858066e-08  -1.1939575032745869e-06  -3.7735524131977816e-07  -9.4053748931001268e-09  -2.1709692915406625e-06  -4.7466239103444646e-09  -3.6179586227184220e-07  5.7427071525643271e-08  2.9705924435130871e-07  -8.1670537774955308e-07  -7.1791561908282847e-08  -5.9248214581121146e-08  -2.2254853737667642e-06  1.8293727821704090e-06  -1.1520696699358183e-08  -4.9978876062475312e-10  4.8182131295208461e-10  -9.0171640708408554e-08  2.7858908593002464e-06  3.9530230125536402e-08  1.6322808357984743e-06  1.8743381015386124e-06  -2.3403277871245736e-09  -2.7417144496947020e-08  -2.4462506014169081e-08  -2.8724327864610099e-06  3.5681574590419031e-06  1.5647835782812922e-06  -1.3406766623680867e-07  4.0740162170269952e-08  -1.1329171543093643e-06  7.6202870793094397e-07  -1.2665722004093814e-08  -2.7063446716709704e-08  2.1657724022306663e-06  -1.4855109307014164e-07  2.8790517025539519e-06  -3.3284712039816891e-07  6.5147628363353083e-08  -3.0203360002647744e-08  6.1869478408263418e-08  7.2671571863997478e-08  -9.9335168608921201e-07  2.4501790018479973e-07  -6.2019402008647925e-08  -1.2749637536745265e-05  1.2753627090224504e-05  1.9886267797860113e-10  7.1879454108711628e-07  -1.4106500942689789e-07  -4.3623281530809164e-07  5.0067867504300530e-08  6.5711142289733282e-08  1.7977575124636322e-07  -4.6027300113004593e-08  -8.5200955065486452e-08  1.4190379961240054e-08  -2.1059692731222841e-06  1.7530963346026807e-06  -2.5060555020739051e-06  -1.0697035751594375e-06  -2.6602438824009988e-07  6.0145431899429287e-05  -6.1487620329538119e-05  3.8504359469355710e-09  4.1302412387193557e-08  9.7757989120728910e-09  -1.3018299906493751e-07  3.4591122309822983e-06  -2.7388769984600952e-08  -1.8944661020648873e-08  2.7326025635095365e-08  2.4007434514379972e-08  5.8375640016202454e-08  5.6294438439342605e-05  -5.6697347005721577e-05  -2.2255064226125764e-07  -8.4575061462389696e-07  1.6979120472900843e-06  3.5916481751492759e-08  -1.3690114023817569e-06  6.9085584269204647e-08  -9.7422832220669633e-09  1.3487271041352937e-07  -4.5128170054716144e-06  -8.3223620173472152e-08  -7.6275182540413464e-09  -1.0868503964829846e-07  2.8359859155244695e-07  -1.0471121022425080e-06  -2.6218585964188438e-08  1.1847964478049467e-08  -6.2375619704887281e-09  -2.0724639713107081e-06  -3.0307752616928849e-07  2.5332574660029396e-08  -2.6367995374985747e-05  -6.7943849406747477e-09  2.6819983990337777e-09  3.4692108619545191e-07  2.6980814934677367e-05  2.8644724035864342e-08  8.3250760319298584e-08  1.0060141520460661e-08  -1.3914899371302109e-08  -1.3698002889111243e-08  -8.4807963776462317e-08  -3.9796845632948708e-08  -4.0628994887909565e-09  1.0362548484963334e-09  7.8483366524887490e-09  -1.0729507760987190e-07  -3.0787513074800970e-09  1.4239207255345045e-07  -2.4166470431909158e-08  -1.2242153427520115e-07  3.7180460923303419e-07  4.7296853341173058e-06  3.8504336876003531e-07  3.5643872621600095e-08  3.1880618728775712e-09  4.5493280469248720e-09  3.9571543170732989e-07  6.4552771640691829e-05  1.4098066169890890e-06  -1.1773593908480526e-06  1.6569471847557095e-06  1.2117081984533628e-08  1.1121020926281402e-06  2.0359212036474723e-08  3.2561392328728711e-07  1.4935722394053567e-06  3.8631984507249723e-08  2.7628836652062344e-08  -4.0368040687827154e-07  -6.9536059743508148e-05  1.1070852987895670e-06  4.1666233052342813e-08  -2.7733509189937313e-08  -2.0759042791265707e-07  -1.6322287456251608e-08  -2.2092774583451450e-08  8.0911386876324348e-10  -2.7179842024627326e-08  7.1055622433296936e-09  -1.2371634811278705e-08  6.7325458547501383e-06  -1.0854241153458187e-06  -2.0970419479985250e-05  2.8993093136880708e-07  -3.9035288393140058e-07  -4.4077444280349519e-06  2.2885059057999619e-05  2.0547703684849148e-06  -1.9550108421152859e-06  -2.8093123844704541e-07  -5.3820750513991460e-07  -9.6953238002217038e-07  -4.1372014489160633e-07  1.1545675274768009e-08  9.5653660150425575e-08  2.6422018352015631e-07  -1.3093572968550052e-04  1.3062004427304193e-04  -3.6261089489120547e-08  1.0936968553714173e-06  -5.5742867266909067e-08  3.3047170754603843e-07  2.2268880582818347e-07  -1.0151167708408484e-05  5.4997796496969422e-09  -1.3224869941285477e-08  2.2004989446460410e-08  -3.1689476179687319e-08  -5.6159020421631594e-08  3.9159394338926864e-05  -3.9218532223535354e-05  -6.8118494533338524e-08  -2.6974959907190175e-08  -1.8661712087861817e-07  -9.4180134025317494e-08  -9.3191221055090872e-09  1.7332284740917014e-08  -5.4186277704203636e-07  -4.8687656642161876e-07  -2.7300192285934797e-07  1.0648564199132258e-06  3.6546331802746039e-07  -1.2166187490251356e-06  3.4019836078101660e-07  4.7703398529502643e-07  4.9777951349574460e-07  -8.6585550715953591e-10  -3.0980365063725949e-06  -2.6157181865259180e-06  -1.3001543465258538e-06  6.4294685515952621e-07  1.0533991885853146e-06  9.8131473772205156e-07  3.2304406896539938e-06  6.6006065672594910e-07  3.4814188146229358e-07  3.5595579403650346e-08  -6.5302165797173773e-07  1.4304346695375713e-06  -1.5163697122954767e-06  2.7456999824210356e-07  1.3657292837557922e-08  -2.0831165411961769e-08  1.2576566730091425e-07  6.0138020143147521e-08  2.7505433484888623e-08  2.5871913381220143e-07  -6.0238702570579821e-08  7.8095661284419093e-08  -1.0584316856425152e-08  7.8436791394844341e-08  1.3302403610496967e-08  -1.7859018420600581e-06  -1.0306402014292737e-08  -2.0370813991404086e-09  5.9169887151249141e-08  3.4513860284814001e-09  7.8390314600357167e-09  -6.0774381737858994e-08  6.2572597355808583e-09  6.8887652900655635e-09  -6.2533485160272498e-08  2.3748780175935135e-09  1.2371151253863092e-08  6.2857574481884046e-09  -6.2067983422132698e-10  8.0711495557155190e-07  -5.9161753523143676e-08  -8.4766803068553627e-06  -1.1595436674584493e-08  7.7684391945831819e-06  -3.8394913969311239e-07  -4.9605443806901511e-08  1.5997652425009168e-08  -1.8944345544448037e-06  -3.8138819997203483e-09  -9.1975698400961408e-08  -1.3345183955488421e-07  3.2007414343028137e-08  -9.4500305074925126e-07  4.2501781697131977e-09  -8.6019985447529008e-09  5.0637734378088615e-08  1.0523341947446072e-08  3.0615801621809498e-07  -2.8370748708904458e-07  -9.0697656942878235e-07  -2.7512277964689739e-07  -5.6244870368695332e-07  2.0470534568463786e-06  -2.6854858821049886e-08  6.5741629245980038e-06  -2.3986391364268893e-07  2.7081794007614443e-07  6.9770951106951281e-08  1.7647235136555659e-08  1.3228951136206942e-07  1.3507104708301687e-07  2.6447408891363180e-07  -1.5645276600048485e-07  -4.8258180778360412e-08  4.4975152715797742e-09  1.8349171233211775e-06  7.6910376447665313e-09  4.9371990448519458e-07  6.9960720059730808e-08  -4.9262703832958292e-06  1.0322887161319519e-05  -9.6250484374237122e-07  6.2455865678999901e-08  -3.0697007223512135e-08  -1.2292102643387841e-08  1.5691119527321148e-06  -1.8715667367023567e-07  1.4582320223186357e-05  -2.2095824045588155e-05  6.2237505167280876e-08  -5.2137575286666092e-08  -1.3249346691197683e-08  1.4355725222743322e-07  3.5743348929753294e-09  -4.4805301258367154e-08  1.8272609337900761e-08  6.4378367338794826e-08  3.0551919251923955e-08  -1.5612286046150638e-04  2.1698919895209480e-08  -2.3923415719209587e-05  3.5089617694107583e-05  -1.0689309674886317e-07  -7.1394111512853039e-07  3.5004028235548927e-08  -2.5961397319996885e-08  -1.8688690581346624e-06  1.5916082976599662e-04  3.7967829564066567e-05  -3.7799976454513270e-05  7.6419458553366571e-05  -7.4522512675197721e-05  9.3402890152603200e-10  5.4462663147827624e-09  1.2530537171029152e-08  -9.6371249630044427e-07  -1.9037402122194000e-07  -5.9390035712979410e-07  -4.9390573098225641e-08  6.8939210655846850e-09  2.8889525475444073e-08  -7.8908513278073666e-08  4.2220981909012092e-07  8.5327354222721802e-08  5.3056046222993219e-08  -3.5048748967724705e-07  -1.2032135510836465e-06  1.4008011849165786e-07  -5.3983935753653846e-09  2.5667634675013894e-08  -1.4757912854082618e-06  6.0721089938445632e-07  -5.1838096354367737e-10  -2.2955458195081032e-07  -7.0552230065630650e-08  -3.3277191085099878e-07  -8.5386690114675906e-10  -1.4875270826710287e-06  1.6781851173417983e-06  6.1410066001638936e-06  -1.0733791653497686e-07  1.0618594647720136e-06  -1.7634531887556064e-08  3.0668863599251230e-06  5.5822896904016589e-08  1.8877846512298281e-08  -6.8038871270111369e-08  8.5102062255392676e-07  9.8108054623493726e-07  8.4245101482454608e-08  1.4558448380952706e-05  -1.2687552313168368e-05  2.3597260403566796e-08  -7.0387389146007650e-08  4.6334432051224539e-09  3.1945751235088457e-07  2.7930819709297261e-07  4.9689367324992478e-07  1.5970484797966040e-07  -1.5483787945795023e-06  -1.8989164630581040e-06  3.7237146298882372e-07  1.0156764537305103e-08  -5.4548704272695556e-07  -1.6622256284579579e-07  5.3148125679182325e-05  1.3308705119624328e-06  -4.2034037080040014e-08  -9.6543747586768591e-08  -2.9213724752226210e-09  1.0305002115698645e-08  5.4146772993667131e-08  2.4233309214303297e-07  -8.1146282804023460e-06  -2.7367588684184848e-06  -2.3889368201686644e-06  -1.9221096175151953e-06  -7.4077113023008661e-07  7.5359943040953293e-07  1.0268516729130197e-04  -2.0092645871665351e-07  1.8022315780834310e-08  3.1514023404038933e-06  3.3748133535936462e-05  4.4041553834363622e-08  -7.2387920031000040e-07  1.2556001876024490e-08  -1.8771736201441104e-06  -3.3829273976559276e-08  4.4714199575829342e-08  8.8847256025335715e-09  1.1503624117516868e-06  1.1021437102135023e-07  6.1256216468970456e-07  7.2337182659966561e-08  1.5666524858516962e-06  2.3747326933526495e-08  -1.6945665138803586e-04  3.2625357154461534e-08  8.1453462832781806e-08  1.9428031168477252e-08  -1.2612322008549274e-09  -5.5425283483840652e-09  1.4751533587711723e-08  -8.1927869214623688e-07  -2.2379504515814200e-08  1.3531668790015326e-05  -1.5120564211001139e-05  4.4315023177202959e-08  1.1349252195395587e-08  3.5009646032206666e-07  -9.6000753199714500e-07  -6.3220895256012688e-08  -2.7077376570580536e-08  1.7238721500629861e-05  -4.9893847426784180e-05  -4.0976498559776541e-07  6.2510621740306101e-09  1.2910735033097264e-04  2.6967719109667184e-06  -8.2989380989747056e-06  -8.1922918814176116e-07  -2.2137055613129292e-07  1.6263036744776073e-07  3.0754727484130476e-05  -2.2816767216653167e-06  8.3085525179200582e-07  -1.8916648746714291e-07  1.4743638334561978e-06  -1.1908679189228303e-07  -9.6359668145544332e-08  -3.9813793019666843e-09  5.6054933567302424e-08  2.1918538817866106e-08  6.8050886144243108e-08  -8.4793998258593022e-07  1.8492514589534296e-08  -1.0077888721072743e-04  1.5403479218764234e-08  -4.2791780490084263e-07  6.4910777525968700e-11  -1.7607206888439044e-05  8.0747106553904863e-08  8.3728096834730559e-09  3.3463604529802366e-07  -1.6982306125027739e-08  -8.4892783550738544e-08  -3.2526148648194308e-06  1.8922800287307045e-06  -9.4697291519401703e-08  -1.2251567475502792e-06  -8.1372425872880054e-08  5.4788758056368187e-08  -2.2895398808929038e-07  2.2684455253197689e-08  -2.9487400812978412e-06  -1.2703817016967527e-06  -2.2978081225577452e-06  -6.1232471320038750e-08  -9.5999386505086475e-07  -1.0406909674595994e-04  -7.5539866186649150e-05  3.7306104699842579e-06  1.9928520386100933e-05  -3.7643773428307468e-05  -6.6683194427975641e-07  1.9350467208770048e-08  2.3297717249988613e-07  -7.5190024065108400e-08  -4.3477047164251398e-09  1.8559158724010840e-08  -2.2212574559099773e-10  4.3280941941601152e-08  -5.2085497255987997e-08  1.7189936022594329e-07  1.5796140269476173e-08  4.4018281321165331e-07  1.3213116313432311e-07  -6.2873448327478509e-08  -3.9046158254147008e-07  2.5853183560716694e-07  1.0366319986855374e-04  7.6517374364205976e-05  -1.3566052804159450e-07  -1.9318127920439786e-08  4.5456858037859343e-09  -5.7781822275587877e-08  -6.1511419925128920e-08  1.6853111379140634e-09  4.3791742753166466e-08  -1.5403311181476659e-05  -1.5045528597806041e-06  -1.1972104617994405e-07  -5.4393507112759860e-08  4.5349088227586251e-08  -2.8476220910675322e-05  -2.8057377020230132e-07  9.1083500853903890e-08  -6.1110974361634452e-08  1.8352455078712939e-08  -8.4838962374862421e-05  8.1932296772191548e-08  7.5501166871357150e-06  -2.8576102998792784e-06  -7.0044064947896681e-07  -2.2482745466386551e-06  -2.4651258615887698e-09  2.3990218091520969e-08  1.2346191157057705e-09  -1.1068100303851053e-06  -7.5075455968177539e-06  -5.7123109025221692e-07  -3.9240485748416513e-07  1.5119801907821734e-07  -9.6803013130753132e-08  -5.2458342858452012e-07  -5.9658363300169857e-07  1.6664661609945626e-07  -8.7987398831293465e-07  4.0955517850121084e-07  1.3454394225755522e-06  1.4519710481854958e-05  -1.2918499289909347e-07  -2.5700637465222913e-08  8.2889087317189881e-05  -1.8551222699861235e-07  -1.8820671995713751e-07  -3.3177315437042028e-07  2.6605193969560463e-06  2.2126138921028512e-04  -4.2040480851747624e-05  -8.2935768342681072e-06  -2.2079697066420943e-04  9.0202053092910458e-08  -1.5160238833256133e-08  -4.0318354422288071e-07  6.6608103738253535e-09  2.5899587235267713e-07  5.9919879807467326e-07  8.5732612825511875e-07  5.0115528893807361e-07  1.3500522212612034e-06  3.4026060959071882e-09  1.5583472541225479e-08  4.7990502760263446e-09  -6.6659470482859829e-07  1.2626529061031581e-06  -4.0820830073775171e-08  3.0935629408665881e-06  -3.6510113808584394e-07  -1.0813180863170873e-06  -1.3114985607805877e-08  -3.6501264119686379e-08  -7.3516702633722074e-10  4.2296521776204652e-06  1.1607745740921170e-05  1.0387090040684761e-08  -1.9526685901743191e-08  -1.5232564663182944e-06  5.9679836205349256e-09  -1.3498060090592451e-09  1.7202768918781714e-08  -3.0311229901610466e-08  6.6275834621614885e-07  4.7579782950901312e-08  -1.3509813251240575e-08  -5.7216211693934250e-07  2.4655842610463433e-08  1.2803760752657898e-06  -1.0059045386338168e-08  -1.0730426560012427e-07  9.7688061920854824e-08  8.4310791471331550e-07  -1.0457093386913381e-07  -5.9054706877125474e-08  -3.6382689313448313e-08  1.6051964053496809e-07  1.2671622089787341e-07  2.6063974681730009e-07  2.6093978779799956e-07  -4.8331029641089207e-05  8.3513853093055009e-09  -1.1699917558979372e-06  1.4301445785078650e-07  3.5036746020543980e-08  -1.1676023488133567e-08  1.3275513363466493e-07  -2.4272281071891873e-05  5.0414601826133394e-07  2.5551389375869041e-05  4.8939670532649408e-07  -3.9125177808525527e-08  1.3330655680014233e-06  -2.5276284708408791e-08  1.8581469972475134e-06  -3.2729700197193556e-09  9.8442562072972166e-07  -4.2951713845455069e-07  -9.4183035570072270e-08  2.4689536305005095e-07  -3.2927103325827089e-08  -2.2529569991532370e-09  -6.5917213635560886e-06  -4.3109733406335164e-06  -1.1787308691084668e-07  5.0469580376008359e-09  -1.8172527054052992e-08  -1.5029737346129008e-06  -1.8901894076271394e-07  -1.2177535253106941e-06  1.7067627287857015e-07  4.5952216668620632e-07  3.7864224309461426e-07  3.5356794623839437e-07  9.8691142258370646e-07  2.6848375152357365e-07  1.1359477307981108e-09  8.1559314474104458e-09  7.3360310595051480e-10  -2.2933987161253695e-07  -3.6548469156450458e-09  9.5069065635117440e-07  1.5664892559431038e-07  -2.0585382050566973e-06  -2.9553250991158522e-07  2.0204441950694264e-08  -3.2868397814260146e-06  -4.6963148117609146e-07  1.6773665699821521e-07  -2.0262249268796545e-08  1.8997531588327832e-08  -5.5201966367584032e-09  1.4778530968981895e-06  -4.5550820616629648e-07  -2.1051114891040735e-07  2.8192620655585778e-05  -2.2144670066043538e-05  2.2364143663999155e-05  -1.7066565660326467e-05  9.2248225174220067e-10  -5.8859506993683842e-07  4.2461174891065085e-09  -3.7901907799143311e-07  -2.6363552387608910e-09  -8.3098559608544617e-09  -1.1288149900604041e-05  9.1461571081351328e-09  -1.6165881748793474e-07  -4.6670254297320306e-08  -4.5170999943564684e-08  1.3613418811248644e-07  -3.0743407630203768e-06  -3.5802637700328102e-06  7.9187836343517277e-08  -1.1705752608046717e-05  -4.2117932173448206e-08  -6.1929025668130974e-05  5.0261897828900505e-05  5.6747352100944286e-09  1.4512713315726259e-08  1.1348412994129401e-07  -6.5989897837316640e-08  5.4779968137049547e-07  -2.9874756419754794e-07  1.3332571349643927e-06  1.4351437498381575e-06  -1.1100152382455271