<?xml version="1.0"?>
<VTKFile type="UnstructuredGrid"  version="0.1"  >
<UnstructuredGrid>
<Piece  NumberOfPoints="3914" NumberOfCells="6504">
<Points>
<DataArray  type="Float64"  NumberOfComponents="3"  format="ascii">1.25 0 0  1.249623523370255 0.03067653565364036 0  1.248494320256466 0.06133459290927252 0  1.246613070848363 0.09195570449958429 0  1.243980908340246 0.1225214254119508 0  1.240599418248387 0.1530133439990203 0  1.236470637455976 0.1834130930692022 0  1.231597052986177 0.2137023609503765 0  1.225981600504038 0.2438629025201603 0  1.219627662548161 0.2738765501960873 0  1.21253906649318 0.3037252248790798 0  1.2047200822443 0.333390946843623 0  1.196175419665261 0.3628558465680779 0  1.186910225741296 0.3921021754986144 0  1.176930081478776 0.4211123167402751 0  1.166240998543424 0.4498687956687352 0  1.154849415639108 0.4783542904563622 0  1.142762194629413 0.5065516425062373 0  1.129986616404304 0.5344438667878526 0  1.116530376494394 0.5620141620682582 0  1.102401580435444 0.5892459210324971 0  1.087608738885889 0.61612274028723 0  1.07216076250034 0.642628430241527 0  1.056066956562134 0.6687470248588714 0  1.039337015378182 0.6944627912745027 0  1.02198101643948 0.7197602392723067 0  1.004009414350806 0.7446241306155417 0  0.9854330345332579 0.7690394882257835 0  0.9662630667034212 0.7929916052045569 0  0.9465110581331058 0.8164660536922209 0  0.9261889066936989 0.8394486935587729 0  0.9053088536893338 0.8619256809213336 0  0.8838834764831844 0.8838834764831843 0  0.8619256809213337 0.9053088536893337 0  0.8394486935587729 0.9261889066936989 0  0.8164660536922209 0.9465110581331055 0  0.7929916052045569 0.9662630667034212 0  0.7690394882257835 0.9854330345332578 0  0.7446241306155419 1.004009414350806 0  0.7197602392723067 1.02198101643948 0  0.6944627912745028 1.039337015378182 0  0.6687470248588716 1.056066956562134 0  0.642628430241527 1.07216076250034 0  0.6161227402872301 1.087608738885889 0  0.5892459210324973 1.102401580435444 0  0.5620141620682583 1.116530376494394 0  0.5344438667878527 1.129986616404304 0  0.5065516425062373 1.142762194629413 0  0.4783542904563623 1.154849415639108 0  0.4498687956687353 1.166240998543424 0  0.4211123167402751 1.176930081478776 0  0.3921021754986145 1.186910225741296 0  0.3628558465680779 1.196175419665261 0  0.333390946843623 1.2047200822443 0  0.30372522487908 1.21253906649318 0  0.2738765501960872 1.219627662548161 0  0.2438629025201604 1.225981600504038 0  0.2137023609503767 1.231597052986177 0  0.1834130930692022 1.236470637455976 0  0.1530133439990203 1.240599418248387 0  0.122521425411951 1.243980908340246 0  0.09195570449958432 1.246613070848363 0  0.06133459290927266 1.248494320256466 0  0.03067653565364033 1.249623523370255 0  7.654042494670958e-17 1.25 0  -0.03067653565364018 1.249623523370255 0  -0.06133459290927251 1.248494320256466 0  -0.09195570449958416 1.246613070848363 0  -0.1225214254119508 1.243980908340246 0  -0.1530133439990202 1.240599418248387 0  -0.1834130930692021 1.236470637455976 0  -0.2137023609503766 1.231597052986177 0  -0.2438629025201602 1.225981600504038 0  -0.2738765501960871 1.219627662548161 0  -0.3037252248790798 1.21253906649318 0  -0.3333909468436229 1.2047200822443 0  -0.3628558465680777 1.196175419665261 0  -0.3921021754986143 1.186910225741296 0  -0.4211123167402749 1.176930081478776 0  -0.4498687956687352 1.166240998543424 0  -0.4783542904563621 1.154849415639108 0  -0.5065516425062372 1.142762194629413 0  -0.5344438667878524 1.129986616404304 0  -0.5620141620682584 1.116530376494394 0  -0.5892459210324972 1.102401580435444 0  -0.61612274028723 1.087608738885889 0  -0.642628430241527 1.07216076250034 0  -0.6687470248588713 1.056066956562134 0  -0.6944627912745025 1.039337015378182 0  -0.7197602392723067 1.02198101643948 0  -0.7446241306155417 1.004009414350806 0  -0.7690394882257834 0.9854330345332579 0  -0.7929916052045567 0.9662630667034213 0  -0.8164660536922207 0.9465110581331059 0  -0.8394486935587731 0.9261889066936988 0  -0.8619256809213337 0.9053088536893337 0  -0.8838834764831843 0.8838834764831844 0  -0.9053088536893334 0.8619256809213338 0  -0.9261889066936986 0.8394486935587732 0  -0.9465110581331058 0.8164660536922208 0  -0.9662630667034212 0.7929916052045569 0  -0.9854330345332578 0.7690394882257836 0  -1.004009414350806 0.7446241306155419 0  -1.02198101643948 0.7197602392723068 0  -1.039337015378182 0.6944627912745027 0  -1.056066956562134 0.6687470248588714 0  -1.07216076250034 0.6426284302415273 0  -1.087608738885889 0.6161227402872302 0  -1.102401580435444 0.5892459210324973 0  -1.116530376494394 0.5620141620682586 0  -1.129986616404304 0.5344438667878525 0  -1.142762194629413 0.5065516425062374 0  -1.154849415639108 0.4783542904563624 0  -1.166240998543424 0.4498687956687354 0  -1.176930081478776 0.4211123167402754 0  -1.186910225741296 0.3921021754986143 0  -1.196175419665261 0.362855846568078 0  -1.2047200822443 0.3333909468436231 0  -1.21253906649318 0.3037252248790801 0  -1.219627662548161 0.2738765501960876 0  -1.225981600504038 0.2438629025201608 0  -1.231597052986177 0.2137023609503765 0  -1.236470637455976 0.1834130930692023 0  -1.240599418248387 0.1530133439990204 0  -1.243980908340246 0.122521425411951 0  -1.246613070848363 0.09195570449958466 0  -1.248494320256466 0.06133459290927246 0  -1.249623523370255 0.03067653565364041 0  -1.25 1.530808498934192e-16 0  -1.249623523370255 -0.0306765356536401 0  -1.248494320256466 -0.06133459290927215 0  -1.246613070848363 -0.09195570449958437 0  -1.243980908340246 -0.1225214254119507 0  -1.240599418248387 -0.1530133439990201 0  -1.236470637455976 -0.183413093069202 0  -1.231597052986177 -0.2137023609503762 0  -1.225981600504038 -0.2438629025201605 0  -1.219627662548161 -0.2738765501960873 0  -1.21253906649318 -0.3037252248790798 0  -1.2047200822443 -0.3333909468436228 0  -1.196175419665261 -0.3628558465680776 0  -1.186910225741296 -0.392102175498614 0  -1.176930081478776 -0.4211123167402752 0  -1.166240998543424 -0.4498687956687352 0  -1.154849415639108 -0.4783542904563621 0  -1.142762194629413 -0.5065516425062371 0  -1.129986616404304 -0.5344438667878523 0  -1.116530376494394 -0.5620141620682583 0  -1.102401580435444 -0.5892459210324971 0  -1.087608738885889 -0.6161227402872299 0  -1.07216076250034 -0.6426284302415269 0  -1.056066956562134 -0.6687470248588712 0  -1.039337015378182 -0.6944627912745025 0  -1.02198101643948 -0.7197602392723067 0  -1.004009414350806 -0.7446241306155416 0  -0.9854330345332579 -0.7690394882257834 0  -0.9662630667034213 -0.7929916052045566 0  -0.946511058133106 -0.8164660536922207 0  -0.9261889066936989 -0.8394486935587731 0  -0.9053088536893338 -0.8619256809213336 0  -0.8838834764831847 -0.8838834764831843 0  -0.8619256809213338 -0.9053088536893334 0  -0.8394486935587733 -0.9261889066936986 0  -0.8164660536922214 -0.9465110581331053 0  -0.7929916052045574 -0.9662630667034209 0  -0.7690394882257841 -0.9854330345332574 0  -0.7446241306155414 -1.004009414350806 0  -0.7197602392723066 -1.02198101643948 0  -0.6944627912745027 -1.039337015378182 0  -0.6687470248588716 -1.056066956562134 0  -0.6426284302415273 -1.07216076250034 0  -0.6161227402872302 -1.087608738885889 0  -0.5892459210324973 -1.102401580435444 0  -0.5620141620682586 -1.116530376494394 0  -0.5344438667878531 -1.129986616404304 0  -0.506551642506238 -1.142762194629413 0  -0.4783542904563629 -1.154849415639108 0  -0.4498687956687349 -1.166240998543424 0  -0.4211123167402749 -1.176930081478776 0  -0.3921021754986143 -1.186910225741296 0  -0.3628558465680781 -1.196175419665261 0  -0.3333909468436231 -1.2047200822443 0  -0.3037252248790802 -1.21253906649318 0  -0.2738765501960876 -1.219627662548161 0  -0.2438629025201608 -1.225981600504038 0  -0.2137023609503771 -1.231597052986176 0  -0.1834130930692029 -1.236470637455976 0  -0.1530133439990199 -1.240599418248387 0  -0.1225214254119506 -1.243980908340246 0  -0.09195570449958419 -1.246613070848363 0  -0.06133459290927254 -1.248494320256466 0  -0.03067653565364049 -1.249623523370255 0  -2.296212748401287e-16 -1.25 0  0.03067653565364003 -1.249623523370255 0  0.06133459290927207 -1.248494320256466 0  0.09195570449958373 -1.246613070848363 0  0.1225214254119501 -1.243980908340246 0  0.1530133439990195 -1.240599418248387 0  0.1834130930692024 -1.236470637455976 0  0.2137023609503766 -1.231597052986177 0  0.2438629025201604 -1.225981600504038 0  0.2738765501960872 -1.219627662548161 0  0.3037252248790797 -1.21253906649318 0  0.3333909468436227 -1.2047200822443 0  0.3628558465680776 -1.196175419665261 0  0.3921021754986139 -1.186910225741296 0  0.4211123167402745 -1.176930081478776 0  0.4498687956687345 -1.166240998543424 0  0.4783542904563625 -1.154849415639108 0  0.5065516425062375 -1.142762194629413 0  0.5344438667878527 -1.129986616404304 0  0.5620141620682583 -1.116530376494394 0  0.589245921032497 -1.102401580435444 0  0.6161227402872298 -1.087608738885889 0  0.6426284302415269 -1.07216076250034 0  0.6687470248588712 -1.056066956562134 0  0.6944627912745023 -1.039337015378182 0  0.7197602392723061 -1.02198101643948 0  0.7446241306155411 -1.004009414350806 0  0.7690394882257838 -0.9854330345332576 0  0.792991605204557 -0.9662630667034211 0  0.8164660536922209 -0.9465110581331058 0  0.8394486935587729 -0.9261889066936989 0  0.8619256809213336 -0.9053088536893338 0  0.8838834764831842 -0.8838834764831847 0  0.9053088536893333 -0.8619256809213339 0  0.9261889066936986 -0.8394486935587733 0  0.9465110581331053 -0.8164660536922214 0  0.9662630667034209 -0.7929916052045574 0  0.9854330345332574 -0.7690394882257843 0  1.004009414350806 -0.7446241306155416 0  1.02198101643948 -0.7197602392723066 0  1.039337015378182 -0.6944627912745027 0  1.056066956562134 -0.6687470248588716 0  1.07216076250034 -0.6426284302415274 0  1.087608738885889 -0.6161227402872304 0  1.102401580435443 -0.5892459210324974 0  1.116530376494394 -0.5620141620682587 0  1.129986616404304 -0.5344438667878532 0  1.142762194629413 -0.50655164250623
[...]
<PointData  Scalars="f_4662980"> 
<DataArray  type="Float64"  Name="f_4662980"  format="ascii">-3.6579983065127419e+00  -4.2674455525852180e+00  -4.8660786589603831e+00  -5.4548312155146483e+00  -6.0511739361251555e+00  -6.6423391300970680e+00  -7.2327795078971793e+00  -7.8324842299636490e+00  -8.4073886937531732e+00  -9.0069585768360501e+00  -9.6112612397126576e+00  -1.0182865217108747e+01  -1.0792628265446394e+01  -1.1390827324631546e+01  -1.1991099850041797e+01  -1.2573746103829622e+01  -1.3202267657422073e+01  -1.3789998888090025e+01  -1.4416302704071432e+01  -1.5020001870634420e+01  -1.5638949681299664e+01  -1.6258818646527406e+01  -1.6895046638237034e+01  -1.7510854892884925e+01  -1.8165596303885049e+01  -1.8793872974082124e+01  -1.9449428479133388e+01  -2.0104531917717090e+01  -2.0769853774621691e+01  -2.1431375045026641e+01  -2.2119087958064707e+01  -2.2802499499400401e+01  -2.3495946104481849e+01  -2.4196067408035461e+01  -2.4920978843257114e+01  -2.5631579481811972e+01  -2.6372573202891012e+01  -2.7119190382615528e+01  -2.7872393428859564e+01  -2.8644058947336138e+01  -2.9448231258358316e+01  -3.0220929542612080e+01  -3.1047799427111833e+01  -3.1878158251157853e+01  -3.2720789886338686e+01  -3.3590075725139954e+01  -3.4463739317221126e+01  -3.5390769374174809e+01  -3.6278190268684824e+01  -3.7248809090784505e+01  -3.8198605795905671e+01  -3.9201736857923720e+01  -4.0202607993304490e+01  -4.1272992472215385e+01  -4.2303098693471100e+01  -4.3429945757691073e+01  -4.4550478400659948e+01  -4.5715863754609543e+01  -4.6927040579266659e+01  -4.8138530542350928e+01  -4.9427605997000754e+01  -5.0727858617979763e+01  -5.2087301985917740e+01  -5.3488939110519198e+01  -5.4924293316221963e+01  -5.6411012087937259e+01  -5.7977611088141721e+01  -5.9568929983670053e+01  -6.1227129919908059e+01  -6.2940417764013418e+01  -6.4740072673270333e+01  -6.6588849996632945e+01  -6.8527746489264999e+01  -7.0545531463072535e+01  -7.2540971150834451e+01  -7.4785830707694203e+01  -7.7019003760810691e+01  -7.9325527568645924e+01  -8.1848701546277169e+01  -8.4375890335815342e+01  -8.6956383233021739e+01  -8.9804283238635435e+01  -9.2657826058584533e+01  -9.5620727273702599e+01  -9.8823691344019778e+01  -1.0205051550090526e+02  -1.0542883151488829e+02  -1.0904121528853500e+02  -1.1270930714917110e+02  -1.1651567187599609e+02  -1.2060674653026679e+02  -1.2463383900518222e+02  -1.2908449934880264e+02  -1.3342901053948054e+02  -1.3812746852110800e+02  -1.4283017186570544e+02  -1.4780513041849773e+02  -1.5280821969363009e+02  -1.5796249030250019e+02  -1.6321204311529956e+02  -1.6850822037061832e+02  -1.7383294240774617e+02  -1.7914320978400158e+02  -1.8438010104968694e+02  -1.8950173802633478e+02  -1.9440526242104647e+02  -1.9904044767960730e+02  -2.0332838533851046e+02  -2.0705655513898884e+02  -2.1015538616291983e+02  -2.1247520207909457e+02  -2.1390273800596589e+02  -2.1426248096625275e+02  -2.1313183009391778e+02  -2.1053055703739597e+02  -2.0662962249108168e+02  -2.0074830406429621e+02  -1.9298828145615593e+02  -1.8312598894570269e+02  -1.7121469788001724e+02  -1.5723458611368267e+02  -1.4094122522780120e+02  -1.2252298403373477e+02  -1.0211713023262681e+02  -8.0034471544563431e+01  -5.6636726743422074e+01  -3.2064939977044276e+01  -6.6719427632513177e+00  1.9066025101655061e+01  4.4695743881702256e+01  6.9758796530555230e+01  9.3825564935744723e+01  1.1651361062148912e+02  1.3775739240161067e+02  1.5723616392700882e+02  1.7466148252040099e+02  1.8996552324243348e+02  2.0293363233864326e+02  2.1388015334086987e+02  2.2281939250525969e+02  2.2973214344630824e+02  2.3482882258182391e+02  2.3825988880698100e+02  2.4006043400623983e+02  2.4046291460074187e+02  2.3965243728195296e+02  2.3777087610873241e+02  2.3501049290147407e+02  2.3150644968823130e+02  2.2740810450951130e+02  2.2281122740218748e+02  2.1781834023099248e+02  2.1253559831823526e+02  2.0707089407873281e+02  2.0145538370777814e+02  1.9575349625588694e+02  1.9000706593054008e+02  1.8431280135433042e+02  1.7865851291632492e+02  1.7304845387346441e+02  1.6754735982009680e+02  1.6221236557028806e+02  1.5687087378077769e+02  1.5185890476977744e+02  1.4676886236881128e+02  1.4205916007931702e+02  1.3728703302238455e+02  1.3277976261935132e+02  1.2846819224298343e+02  1.2414094051807412e+02  1.2014124952947755e+02  1.1620234077400728e+02  1.1231768934225579e+02  1.0873753226503833e+02  1.0519836981243532e+02  1.0169758866853974e+02  9.8497240890032103e+01  9.5340400132861291e+01  9.2163668704557665e+01  8.9328696886312642e+01  8.6409967606141279e+01  8.3724624898497979e+01  8.0957164542014212e+01  7.8518628855553558e+01  7.5889633295213272e+01  7.3602160759009124e+01  7.1281369153471843e+01  6.9002858828430675e+01  6.6885741306544759e+01  6.4726706260351136e+01  6.2778028455099339e+01  6.0709029578485620e+01  5.8900281454589823e+01  5.7001316905398220e+01  5.5243721956190861e+01  5.3475666148840538e+01  5.1824963674132448e+01  5.0142523233601835e+01  4.8569327734856230e+01  4.7040381464790492e+01  4.5528012925253606e+01  4.4059523775936846e+01  4.2609036106073738e+01  4.1252764323055814e+01  3.9885582721636453e+01  3.8555528100315499e+01  3.7291199988754762e+01  3.6025935036770250e+01  3.4804022264626553e+01  3.3634615004851128e+01  3.2464738385620727e+01  3.1288294868819623e+01  3.0229649124140412e+01  2.9107272212298341e+01  2.8065963150932912e+01  2.6998682683829692e+01  2.6016030787151923e+01  2.4974931328027122e+01  2.4033271950722348e+01  2.3082258279636680e+01  2.2123718260327298e+01  2.1219136576017799e+01  2.0317485311645260e+01  1.9432260851286429e+01  1.8563915587311890e+01  1.7713603806411101e+01  1.6868859685493980e+01  1.6062496256617131e+01  1.5223996021015710e+01  1.4466589065238052e+01  1.3665104040118353e+01  1.2872405535266505e+01  1.2145777899623397e+01  1.1374560854277822e+01  1.0661167850412133e+01  9.9099506928336201e+00  9.2002308436813962e+00  8.5083550113225783e+00  7.7919738478717839e+00  7.1076304253150191e+00  6.4253152632576365e+00  5.7554342039926096e+00  5.0830120895735922e+00  4.4256354026720484e+00  3.7670198511308177e+00  3.1311551465289194e+00  2.4923023599795626e+00  1.8480972014132571e+00  1.2296070588664219e+00  5.8026536335503809e-01  -1.6143506546485119e-02  -6.3681946853184590e-01  -1.2582917196848209e+00  -1.8603471297928484e+00  -2.4633935009876025e+00  -3.0775412388311829e+00  -9.1877650805024942e+00  -8.4642379530145408e+00  -7.7711378939052373e+00  -7.0901818395590892e+00  -6.3817987317875104e+00  -5.6015582912063415e+00  -4.8947894701556898e+00  -4.2149768763430862e+00  -3.4218420121200972e+00  -2.6965184380928253e+00  -2.0019627245406610e+00  -1.2039803094360937e+00  -4.6181682392394735e-01  3.8519676614760484e-01  1.1391700954852348e+00  1.9779112981649218e+00  2.7937914808324198e+00  3.5793793987040146e+00  4.4103780814514009e+00  5.2236721042810199e+00  6.1767069063394695e+00  7.0054948798790324e+00  7.8891383191699456e+00  8.7496519498138046e+00  9.7290513604011739e+00  1.0652074567430887e+01  1.1583492506305442e+01  1.2590150042659936e+01  1.3563239172717880e+01  1.4637542817772223e+01  1.5598308227624502e+01  1.6705740501312846e+01  1.7772185584223816e+01  1.8776123971311335e+01  1.9913787188094567e+01  2.1042886259132477e+01  2.2249138658921535e+01  2.3397105364278520e+01  2.4630965171602121e+01  2.5817577184340124e+01  2.7084955363635775e+01  2.8327459599385232e+01  2.9720183699179099e+01  3.0990677010281861e+01  3.2414422593937999e+01  3.3799637220973310e+01  3.5232878086125048e+01  3.6643471396534274e+01  3.8184466961173086e+01  3.9708839544335248e+01  4.1400243166615532e+01  4.2954113327019144e+01  4.4533359836147163e+01  4.6290652184742463e+01  4.7981175232737826e+01  4.9770727774352558e+01  5.1625610013217141e+01  5.3489873489701836e+01  5.5364646822890151e+01  5.7382018589714797e+01  5.9456755120480658e+01  6.1561731232707523e+01  6.3657241127299685e+01  6.5904759977096631e+01  6.8165943285041848e+01  7.0518669240622856e+01  7.2795393996608794e+01  7.5315231323969215e+01  7.7827747218287840e+01  8.0505120226485417e+01  8.3386060778095072e+01  8.6000415915039440e+01  8.8924787906784388e+01  9.1932122743860532e+01  9.4888490364349735e+01  9.8049708909730128e+01  1.0117726520768588e+02  1.0461604948342139e+02  1.0789755150415932e+02  1.1142806273423307e+02  1.1503119775875618e+02  1.1880215872349164e+02  1.2265730135954072e+02  1.2649333520206685e+02  1.3055222001530967e+02  1.3475183200375417e+02  1.3889508894099205e+02  1.4333009999882381e+02  1.4786413252887857e+02  1.5238832341996587e+02  1.5712007432538368e+02  1.6186122871460759e+02  1.6672681708851732e+02  1.7155181509722760e+02  1.7662381785918939e+02  1.8155973869321963e+02  1.8663514990552136e+02  1.9151008617051852e+02  1.9663531515973310e+02  2.0147797764782115e+02  2.0642063656160749e+02  2.1105792735743290e+02  2.1542437077818843e+02  2.1984345273505048e+02  2.2375746584854201e+02  2.2740210691804575e+02  2.3055252448832661e+02  2.3329043645008608e+02  2.3532610837542765e+02  2.3677648180584654e+02  2.3728839571148259e+02  2.3702709637682204e+02  2.3583197658216574e+02  2.3350722221935490e+02  2.3011017174709224e+02  2.2532610431276689e+02  2.1924848149449866e+02  2.1174967351113537e+02  2.0278806484663733e+02  1.9237740111494128e+02  1.8034318787188755e+02  1.6686692297473220e+02  1.5191441506299248e+02  1.3558539516188026e+02  1.1798226816596593e+02  9.9263834297464797e+01  7.9487795346820079e+01  5.9062201146542705e+01  3.8005986268165870e+01  1.6641490887833882e+01  -4.7934015382002713e+00  -2.6070350361656924e+01  -4.7047999097939766e+01  -6.7137080476249864e+01  -8.6437730233336339e+01  -1.0472105417672705e+02  -1.2178322937795541e+02  -1.3751049962979928e+02  -1.5203420544994202e+02  -1.6465986995292454e+02  -1.7581950853442038e+02  -1.8524441899684240e+02  -1.9339549605480425e+02  -2.0009828017523142e+02  -2.0543303091807695e+02  -2.0955557546783962e+02  -2.1242045075438145e+02  -2.1482298315932675e+02  -2.1547721628608437e+02  -2.1523532974919752e+02  -2.1420728249235108e+02  -2.1234865179894092e+02  -2.1009247761606241e+02  -2.0715442644206576e+02  -2.0372838728336842e+02  -2.0000177780280714e+02  -1.9609871456371394e+02  -1.9189767011417842e+02  -1.8755172861712668e+02  -1.8286635940732069e+02  -1.7833071656598460e+02  -1.7355359224796825e+02  -1.6897685574203584e+02  -1.6439239353364997e+02  -1.5979534869177633e+02  -1.5530340987671539e+02  -1.5072026958200769e+02  -1.4627885458579954e+02  -1.4200519126475928e+02  -1.3779421460629865e+02  -1.3368480338375082e+02  -1.2985027684173468e+02  -1.2598548329331940e+02  -1.2210930162867521e+02  -1.1850681405474904e+02  -1.1501608566960930e+02  -1.1166253842547478e+02  -1.0834971027995938e+02  -1.0513645236304768e+02  -1.0201913625319574e+02  -9.9120802517094546e+01  -9.6294665535946166e+01  -9.3434878748880976e+01  -9.0896499893001234e+01  -8.8268670499592517e+01  -8.5902284949458632e+01  -8.3443476985264368e+01  -8.1251439744448078e+01  -7.8954283760801317e+01  -7.6845002772141640e+01  -7.4810116724145885e+01  -7.2850849682278351e+01  -7.0865285517783519e+01  -6.9122688881480556e+01  -6.7270979580200930e+01  -6.5573603056128462e+01  -6.3860258907788591e+01  -6.2218138244285555e+01  -6.0615548522191382e+01  -5.9197651516607209e+01  -5.7646969062007507e+01  -5.6296887123725298e+01  -5.4856471079872229e+01  -5.3450711757163397e+01  -5.2205158651542916e+01  -5.0951151377125640e+01  -4.9761990779655640e+01  -4.8469514707974255e+01  -4.7384362992309974e+01  -4.6175468480119022e+01  -4.5122442401752551e+01  -4.3989467220111543e+01  -4.2954340738296047e+01  -4.1947062694410491e+01  -4.0994333514783932e+01  -3.9959444602456692e+01  -3.8943024767838331e+01  -3.8054766236540168e+01  -3.7039897921745343e+01  -3.6209344315039154e+01  -3.5348332234693046e+01  -3.4460936565741115e+01  -3.3585662877522992e+01  -3.2754846674250835e+01  -3.1995592051871832e+01  -3.1183521876440686e+01  -3.0348001036220779e+01  -2.9589623573694155e+01  -2.8764395607445600e+01  -2.8062257512657066e+01  -2.7246722415440445e+01  -2.6514203634910810e+01  -2.5760117592214485e+01  -2.5071492314697899e+01  -2.4336521043758719e+01  -2.3634592522492426e+01  -2.2883032958467783e+01  -2.2262937230276687e+01  -2.1519646399909998e+01  -2.0852700774630250e+01  -2.0129594870468942e+01  -1.9412771766865735e+01  -1.8748075531218046e+01  -1.8045326234653732e+01  -1.7375448524265789e+01  -1.6678194471670267e+01  -1.6015116932398424e+01  -1.5306235156056401e+01  -1.4685690409125186e+01  -1.3995081758759262e+01  -1.3271411886382099e+01  -1.2663900824160754e+01  -1.1979786689659683e+01  -1.1287211639635853e+01  -1.0578911020102929e+01  -9.8829719189476588e+00  -3.8585402347330282e+00  -9.1957076465444203e+00  1.5726022108987079e+00  -1.4282383370803995e+01  7.4507194295296824e+00  -1.9411739187342135e+01  1.3450606830592303e+01  -2.4794176085587580e+01  2.0076287240265906e+01  -3.0665271641807973e+01  2.7863587446651891e+01  -3.6294333072780162e+01  3.5185320871780760e+01  -4.2134403997065299e+01  4.3996361954282435e+01  -4.8324129209353778e+01  5.3683082184395388e+01  -5.4889158042050170e+01  -6.2575551721698730e+00  6.2423405963474451e+01  -8.9353362343523934e-01  -1.1306951673271803e+01  4.7303557869911392e+00  -6.7438289850816773e+00  4.3392381218275391e+00  -1.0384543222932316e+00  -1.1625293398118536e+01  -6.1907360900858102e+01  1.0744600564957544e+01  -1.6580716622999347e+01  -1.6551881761507392e+01  7.1596937634877904e+01  1.0239594958963348e+01  -2.1841914973466309e+01  1.7011936290523227e+01  -2.1711107233235040e+01  1.6293245709014855e+01  -3.7963296829919138e+00  -6.9519956278708179e+01  -8.4606482078433629e+00  2.3270710731269455e+00  -3.9917560533754006e+00  -2.7483403970961241e+01  2.4219125643183979e+01  -1.3545497121770836e+01  -2.7278800601695767e+01  2.3674295203650605e+01  8.1635045567700033e+01  8.1168909542198833e+00  -1.9236424310220684e+01  1.3912741797866916e+01  -7.7699090842535355e+01  3.1621196723999315e+01  -3.3264036159719453e+01  7.1624977721652687e+00  1.5914467933402110e+00  9.1566903188911880e+01  -2.4912445722508480e+01  2.0623792620788137e+01  1.9637585759859618e+01  -3.2541717450780247e+01  -9.1838210051950728e+00  -1.4075571600532664e+01  3.1214354901336900e+01  -1.9102371263447896e+01  -2.4483210120097066e+01  -3.8779403670764133e+01  3.8978747503012656e+01  -8.7478358651293618e+01  -2.9884099079991035e+01  1.0185253748077761e+02  1.2965999433362288e+01  -3.8979844880842357e+01  3.9247266981935375e+01  2.7525342084952261e+01  2.7177300643701241e+01  -9.6568232950724109e+01  -1.2161615781192658e+01  -6.2495239257999302e-01  -3.5836128396257720e+01  -4.5183578223665947e+01  4.9087095307757949e+01  -3.5609459070279584e+01  3.5139554984712447e+01  -7.1580765943213676e+00  1.1344307470867665e+02  4.7251138668564174e+01  -4.5109127073446672e+01  -1.7285456652709037e+01  -5.1455809113383147e+01  -2.9860613398893321e+01  9.8104200450008339e+00  3.4999486558790750e+01  3.7330874632654871e+00  -1.0651665403182123e+02  -4.1546145050235758e+01  4.3179583665922316e+01  1.5984056874573845e+01  5.7716106778681898e+01  -2.2580195906179007e+01  1.2542052184875672e+02  -5.1668420103568362e+00  -9.9160635902896157e+00  -2.0284762406829016e+00  -5.1546038560157918e+01  6.3205723091186181e+00  6.4979080573453341e-01  4.0558125152567914e+00  5.7605215540724842e+01  -1.5106734624635280e+01  -3.2974648877271491e+01  -2.6954964026727137e+00  -6.9213026454164535e+00  -1.1594683919245922e+02  -4.1946805907561071e+01  -1.4999447609433146e+01  -5.1017582152093466e+00  -4.8127062527112230e+01  -1.7560914684901501e+01  5.1712000477831182e+01  -5.7422046046453247e+01  -5.8267972850595406e+01  -4.9116116786006083e+00  2.9724086465356852e+00  -1.1729753478103822e+01  4.3007734414163345e+01  1.3877106143505506e+02  -2.1678729474954266e+00  7.5036181189983364e-01  -2.6851487315470951e+01  -7.9461639650796050e+00  -6.5598574761983855e+01  5.6196936490281830e+00  5.3074281680785212e+01  -5.9929433530078349e+00  6.5700476162904508e+01  -2.6705886275938520e+00  -3.5762046460098951e-01  -1.2590419300048715e+02  6.6976575878135165e+01  1.2180368408919307e+01  9.8301324171402857e+00  8.5528415264338058e+00  -2.3065658809776242e+01  -1.0920378611473197e+01  -1.3038120320409988e+01  -7.7758219188327908e+00  5.9804921700648759e+00  -1.0615296354307024e+01  3.0753207417183614e+01  -2.3651435556602284e+01  -2.0671380489864831e+01  3.0864013171059028e+00  2.2745856985536836e+01  -1.8136464574863542e+01  -1.2764602415957560e+01  5.0456930819992554e+00  1.5001440428350694e+01  1.8650078955983219e+01  1.5839140567488528e+01  8.7983200660325771e+00  -5.4596151517075100e+01  2.5219159743079580e+01  -4.8216912468827182e+01  1.8306128034927529e+01  -1.0317517442242432e+01  -1.5746109724949715e+01  -1.7704362798992445e+01  1.2394141985209339e+01  3.9552091635881681e-01  8.5339436042083570e+00  -2.9078773875956269e+01  -3.8646608666367698e+01  7.6946612214484190e+01  1.4969282829312351e+02  -6.4068679045460840e+01  -2.6392245441544866e+01  -2.0967861890339716e+01  1.2172837359440763e+01  2.1862355854398924e+01  2.2833108427277089e+01  2.5545140349898205e+01  6.1987767645270715e+01  -2.2878308499149629e+01  -2.0892046333250814e+01  1.8048831485198249e+01  -1.5771458031530559e+01  1.7086743055562426e+01  1.4600012137196940e+01  7.4613034297342665e+01  -1.3802066066897214e+02  -7.3461987339291554e+01  -2.8195430654545078e+01  1.0570325267513665e+01  -8.0371167129598291e+00  -2.8870929328642717e+01  -6.5664233330010857e-01  2.1407254122487988e+01  2.8432714366897320e+00  -6.1646765535350717e+01  -2.7026375527211881e+00  -1.3264216013500990e+01  -2.6453181482643064e+01  1.6155729502688934e+02  4.0499394721491235e+01  -2.0311670133651436e+01  7.0378660779530549e+00  1.4584402355634451e+01  -4.4668162020843219e+01  2.2043024026998445e+01  -7.3654384161672937e+01  2.4409853480552897e+01  -3.1506785186935439e+01  -3.4065978697263589e+01  -9.3420203171247600e+00  7.1400606586370614e+01  4.7398385428708288e+01  -2.3731288334697187e+01  -2.5762474023921534e+01  -1.4931446658148982e+02  -2.5715566913458197e+01  2.9874164720768782e+01  3.3076285122071006e+01  -8.2865774141159648e+01  -8.7691094312065232e+00  -4.0066268971191770e+00  -1.2886398772309301e+01  1.1198217092068208e+00  -1.7937724853210828e+01  8.6136280520574175e+01  8.4831497126158169e+01  -2.8301169804818297e+01  -9.7378875581080138e+00  2.8759727130360351e+00  4.6356319629800424e+01  -3.1450814491497642e+01  9.6555941656016685e+01  2.6389976012452546e+01  -6.9221653483931235e+01  1.7480464965606606e+02  -8.2220504136628051e+01  -3.4625418282954726e+01  -1.9456968061797468e+01  -1.6278627909352220e+01  -4.7831913421150469e+00  6.4551260620330400e+00  -6.8164164326799252e+01  -1.6150620716951341e+01  9.5957486864786532e+01  -3.4544191180132394e+01  2.9732578320969676e+01  -5.0995861594014045e+01  -1.6014699779459679e+02  2.9216537725855865e+01  7.6119788160327611e+00  3.2988489601924407e+01  -2.0492026016749907e+01  -4.0489787063109866e+01  3.7785364919221145e+01  7.9802891161537318e+01  4.0841850380289500e+01  3.7427966945994115e+01  -3.9731645663690273e+01  -3.7415007186004758e+01  1.8605342279366994e+02  1.1517470881401589e+01  3.7678709255344899e+01  5.8533188425712858e+01  6.1547817252601043e+01  -3.4165495777752021e+01  -3.2109441026254885e+01  3.3495891806827764e+01  2.9173620730752596e+01  -1.4003268394978477e+01  -5.4401411428998877e+01  -5.7500344249166266e+00  -5.8676145687322396e+01  1.8941931945857313e+01  -6.0646311386597979e+01  1.0660399911441327e+02  -9.1002336033012369e+01  -1.9516988719425253e+01  -1.9368907298895259e+01  7.0053035873235260e+01  -3.7698423633928826e+01  1.3526415238488417e+01  -3.0669380139195425e+01  -1.7009213109492936e+02  -7.8081196723313383e+01  9.0549039186583684e+01  3.6850595442819333e+01  5.0477712353066394e+01  -3.9866549237936042e+01  1.6896519065709708e+00  3.2319069654577675e+01  -2.4184095157055960e+01  -6.5839678605179245e+01  -4.3444043345613395e+01  -1.4425469062198353e+01  1.9