<?xml version="1.0"?>
<VTKFile type="UnstructuredGrid"  version="0.1"  >
<UnstructuredGrid>
<Piece  NumberOfPoints="3920" NumberOfCells="6615">
<Points>
<DataArray  type="Float64"  NumberOfComponents="3"  format="ascii">1.25 0 0  1.249623523370255 0.03067653565364036 0  1.248494320256466 0.06133459290927252 0  1.246613070848363 0.09195570449958429 0  1.243980908340246 0.1225214254119508 0  1.240599418248387 0.1530133439990203 0  1.236470637455976 0.1834130930692022 0  1.231597052986177 0.2137023609503765 0  1.225981600504038 0.2438629025201603 0  1.219627662548161 0.2738765501960873 0  1.21253906649318 0.3037252248790798 0  1.2047200822443 0.333390946843623 0  1.196175419665261 0.3628558465680779 0  1.186910225741296 0.3921021754986144 0  1.176930081478776 0.4211123167402751 0  1.166240998543424 0.4498687956687352 0  1.154849415639108 0.4783542904563622 0  1.142762194629413 0.5065516425062373 0  1.129986616404304 0.5344438667878526 0  1.116530376494394 0.5620141620682582 0  1.102401580435444 0.5892459210324971 0  1.087608738885889 0.61612274028723 0  1.07216076250034 0.642628430241527 0  1.056066956562134 0.6687470248588714 0  1.039337015378182 0.6944627912745027 0  1.02198101643948 0.7197602392723067 0  1.004009414350806 0.7446241306155417 0  0.9854330345332579 0.7690394882257835 0  0.9662630667034212 0.7929916052045569 0  0.9465110581331058 0.8164660536922209 0  0.9261889066936989 0.8394486935587729 0  0.9053088536893338 0.8619256809213336 0  0.8838834764831844 0.8838834764831843 0  0.8619256809213337 0.9053088536893337 0  0.8394486935587729 0.9261889066936989 0  0.8164660536922209 0.9465110581331055 0  0.7929916052045569 0.9662630667034212 0  0.7690394882257835 0.9854330345332578 0  0.7446241306155419 1.004009414350806 0  0.7197602392723067 1.02198101643948 0  0.6944627912745028 1.039337015378182 0  0.6687470248588716 1.056066956562134 0  0.642628430241527 1.07216076250034 0  0.6161227402872301 1.087608738885889 0  0.5892459210324973 1.102401580435444 0  0.5620141620682583 1.116530376494394 0  0.5344438667878527 1.129986616404304 0  0.5065516425062373 1.142762194629413 0  0.4783542904563623 1.154849415639108 0  0.4498687956687353 1.166240998543424 0  0.4211123167402751 1.176930081478776 0  0.3921021754986145 1.186910225741296 0  0.3628558465680779 1.196175419665261 0  0.333390946843623 1.2047200822443 0  0.30372522487908 1.21253906649318 0  0.2738765501960872 1.219627662548161 0  0.2438629025201604 1.225981600504038 0  0.2137023609503767 1.231597052986177 0  0.1834130930692022 1.236470637455976 0  0.1530133439990203 1.240599418248387 0  0.122521425411951 1.243980908340246 0  0.09195570449958432 1.246613070848363 0  0.06133459290927266 1.248494320256466 0  0.03067653565364033 1.249623523370255 0  7.654042494670958e-17 1.25 0  -0.03067653565364018 1.249623523370255 0  -0.06133459290927251 1.248494320256466 0  -0.09195570449958416 1.246613070848363 0  -0.1225214254119508 1.243980908340246 0  -0.1530133439990202 1.240599418248387 0  -0.1834130930692021 1.236470637455976 0  -0.2137023609503766 1.231597052986177 0  -0.2438629025201602 1.225981600504038 0  -0.2738765501960871 1.219627662548161 0  -0.3037252248790798 1.21253906649318 0  -0.3333909468436229 1.2047200822443 0  -0.3628558465680777 1.196175419665261 0  -0.3921021754986143 1.186910225741296 0  -0.4211123167402749 1.176930081478776 0  -0.4498687956687352 1.166240998543424 0  -0.4783542904563621 1.154849415639108 0  -0.5065516425062372 1.142762194629413 0  -0.5344438667878524 1.129986616404304 0  -0.5620141620682584 1.116530376494394 0  -0.5892459210324972 1.102401580435444 0  -0.61612274028723 1.087608738885889 0  -0.642628430241527 1.07216076250034 0  -0.6687470248588713 1.056066956562134 0  -0.6944627912745025 1.039337015378182 0  -0.7197602392723067 1.02198101643948 0  -0.7446241306155417 1.004009414350806 0  -0.7690394882257834 0.9854330345332579 0  -0.7929916052045567 0.9662630667034213 0  -0.8164660536922207 0.9465110581331059 0  -0.8394486935587731 0.9261889066936988 0  -0.8619256809213337 0.9053088536893337 0  -0.8838834764831843 0.8838834764831844 0  -0.9053088536893334 0.8619256809213338 0  -0.9261889066936986 0.8394486935587732 0  -0.9465110581331058 0.8164660536922208 0  -0.9662630667034212 0.7929916052045569 0  -0.9854330345332578 0.7690394882257836 0  -1.004009414350806 0.7446241306155419 0  -1.02198101643948 0.7197602392723068 0  -1.039337015378182 0.6944627912745027 0  -1.056066956562134 0.6687470248588714 0  -1.07216076250034 0.6426284302415273 0  -1.087608738885889 0.6161227402872302 0  -1.102401580435444 0.5892459210324973 0  -1.116530376494394 0.5620141620682586 0  -1.129986616404304 0.5344438667878525 0  -1.142762194629413 0.5065516425062374 0  -1.154849415639108 0.4783542904563624 0  -1.166240998543424 0.4498687956687354 0  -1.176930081478776 0.4211123167402754 0  -1.186910225741296 0.3921021754986143 0  -1.196175419665261 0.362855846568078 0  -1.2047200822443 0.3333909468436231 0  -1.21253906649318 0.3037252248790801 0  -1.219627662548161 0.2738765501960876 0  -1.225981600504038 0.2438629025201608 0  -1.231597052986177 0.2137023609503765 0  -1.236470637455976 0.1834130930692023 0  -1.240599418248387 0.1530133439990204 0  -1.243980908340246 0.122521425411951 0  -1.246613070848363 0.09195570449958466 0  -1.248494320256466 0.06133459290927246 0  -1.249623523370255 0.03067653565364041 0  -1.25 1.530808498934192e-16 0  -1.249623523370255 -0.0306765356536401 0  -1.248494320256466 -0.06133459290927215 0  -1.246613070848363 -0.09195570449958437 0  -1.243980908340246 -0.1225214254119507 0  -1.240599418248387 -0.1530133439990201 0  -1.236470637455976 -0.183413093069202 0  -1.231597052986177 -0.2137023609503762 0  -1.225981600504038 -0.2438629025201605 0  -1.219627662548161 -0.2738765501960873 0  -1.21253906649318 -0.3037252248790798 0  -1.2047200822443 -0.3333909468436228 0  -1.196175419665261 -0.3628558465680776 0  -1.186910225741296 -0.392102175498614 0  -1.176930081478776 -0.4211123167402752 0  -1.166240998543424 -0.4498687956687352 0  -1.154849415639108 -0.4783542904563621 0  -1.142762194629413 -0.5065516425062371 0  -1.129986616404304 -0.5344438667878523 0  -1.116530376494394 -0.5620141620682583 0  -1.102401580435444 -0.5892459210324971 0  -1.087608738885889 -0.6161227402872299 0  -1.07216076250034 -0.6426284302415269 0  -1.056066956562134 -0.6687470248588712 0  -1.039337015378182 -0.6944627912745025 0  -1.02198101643948 -0.7197602392723067 0  -1.004009414350806 -0.7446241306155416 0  -0.9854330345332579 -0.7690394882257834 0  -0.9662630667034213 -0.7929916052045566 0  -0.946511058133106 -0.8164660536922207 0  -0.9261889066936989 -0.8394486935587731 0  -0.9053088536893338 -0.8619256809213336 0  -0.8838834764831847 -0.8838834764831843 0  -0.8619256809213338 -0.9053088536893334 0  -0.8394486935587733 -0.9261889066936986 0  -0.8164660536922214 -0.9465110581331053 0  -0.7929916052045574 -0.9662630667034209 0  -0.7690394882257841 -0.9854330345332574 0  -0.7446241306155414 -1.004009414350806 0  -0.7197602392723066 -1.02198101643948 0  -0.6944627912745027 -1.039337015378182 0  -0.6687470248588716 -1.056066956562134 0  -0.6426284302415273 -1.07216076250034 0  -0.6161227402872302 -1.087608738885889 0  -0.5892459210324973 -1.102401580435444 0  -0.5620141620682586 -1.116530376494394 0  -0.5344438667878531 -1.129986616404304 0  -0.506551642506238 -1.142762194629413 0  -0.4783542904563629 -1.154849415639108 0  -0.4498687956687349 -1.166240998543424 0  -0.4211123167402749 -1.176930081478776 0  -0.3921021754986143 -1.186910225741296 0  -0.3628558465680781 -1.196175419665261 0  -0.3333909468436231 -1.2047200822443 0  -0.3037252248790802 -1.21253906649318 0  -0.2738765501960876 -1.219627662548161 0  -0.2438629025201608 -1.225981600504038 0  -0.2137023609503771 -1.231597052986176 0  -0.1834130930692029 -1.236470637455976 0  -0.1530133439990199 -1.240599418248387 0  -0.1225214254119506 -1.243980908340246 0  -0.09195570449958419 -1.246613070848363 0  -0.06133459290927254 -1.248494320256466 0  -0.03067653565364049 -1.249623523370255 0  -2.296212748401287e-16 -1.25 0  0.03067653565364003 -1.249623523370255 0  0.06133459290927207 -1.248494320256466 0  0.09195570449958373 -1.246613070848363 0  0.1225214254119501 -1.243980908340246 0  0.1530133439990195 -1.240599418248387 0  0.1834130930692024 -1.236470637455976 0  0.2137023609503766 -1.231597052986177 0  0.2438629025201604 -1.225981600504038 0  0.2738765501960872 -1.219627662548161 0  0.3037252248790797 -1.21253906649318 0  0.3333909468436227 -1.2047200822443 0  0.3628558465680776 -1.196175419665261 0  0.3921021754986139 -1.186910225741296 0  0.4211123167402745 -1.176930081478776 0  0.4498687956687345 -1.166240998543424 0  0.4783542904563625 -1.154849415639108 0  0.5065516425062375 -1.142762194629413 0  0.5344438667878527 -1.129986616404304 0  0.5620141620682583 -1.116530376494394 0  0.589245921032497 -1.102401580435444 0  0.6161227402872298 -1.087608738885889 0  0.6426284302415269 -1.07216076250034 0  0.6687470248588712 -1.056066956562134 0  0.6944627912745023 -1.039337015378182 0  0.7197602392723061 -1.02198101643948 0  0.7446241306155411 -1.004009414350806 0  0.7690394882257838 -0.9854330345332576 0  0.792991605204557 -0.9662630667034211 0  0.8164660536922209 -0.9465110581331058 0  0.8394486935587729 -0.9261889066936989 0  0.8619256809213336 -0.9053088536893338 0  0.8838834764831842 -0.8838834764831847 0  0.9053088536893333 -0.8619256809213339 0  0.9261889066936986 -0.8394486935587733 0  0.9465110581331053 -0.8164660536922214 0  0.9662630667034209 -0.7929916052045574 0  0.9854330345332574 -0.7690394882257843 0  1.004009414350806 -0.7446241306155416 0  1.02198101643948 -0.7197602392723066 0  1.039337015378182 -0.6944627912745027 0  1.056066956562134 -0.6687470248588716 0  1.07216076250034 -0.6426284302415274 0  1.087608738885889 -0.6161227402872304 0  1.102401580435443 -0.5892459210324974 0  1.116530376494394 -0.5620141620682587 0  1.129986616404304 -0.5344438667878532 0  1.142762194629413 -0.50655164250623
[...]
<PointData  Scalars="f_1516729"> 
<DataArray  type="Float64"  Name="f_1516729"  format="ascii">-1.2421836597992593e+02  -1.2481176441653794e+02  -1.2495994132814303e+02  -1.2554433788633430e+02  -1.2580819103252983e+02  -1.2631358925459523e+02  -1.2676137352186439e+02  -1.2717353526885573e+02  -1.2685482239844761e+02  -1.2712768885288600e+02  -1.2681049155228939e+02  -1.2683245498641607e+02  -1.2725839266607689e+02  -1.2690042701041526e+02  -1.2728502047748989e+02  -1.2670299408209279e+02  -1.2719171906469165e+02  -1.2658978655204636e+02  -1.2641749464324279e+02  -1.2532170382184543e+02  -1.2484036210729862e+02  -1.2406047060892067e+02  -1.2306458018635149e+02  -1.2205127325569309e+02  -1.2122454892862493e+02  -1.2013150588515445e+02  -1.1968253438312000e+02  -1.1837414716509655e+02  -1.1739691843374230e+02  -1.1576009500603341e+02  -1.1509227671401864e+02  -1.1361952809190308e+02  -1.1191662580368852e+02  -1.0988057438937950e+02  -1.0887869634394809e+02  -1.0747139674601037e+02  -1.0669572541283412e+02  -1.0577692959411623e+02  -1.0382598767630897e+02  -1.0346254640642584e+02  -1.0146427804130867e+02  -9.9717236063790779e+01  -9.7993703504916013e+01  -9.6514628006354158e+01  -9.4463721909481919e+01  -9.2146502066209820e+01  -9.0012562611368338e+01  -8.7395848747999395e+01  -8.4609043681381195e+01  -8.2698118022052952e+01  -8.0964453069258880e+01  -7.8199497760275761e+01  -7.5652952872355471e+01  -7.1772436236244729e+01  -6.7623488943085903e+01  -6.5546515747606776e+01  -6.2771002210144786e+01  -5.9605464088619428e+01  -5.5332389472711597e+01  -5.0618308544910334e+01  -4.7561115606030071e+01  -4.5634173786101762e+01  -4.1264102228563338e+01  -3.7402499384973638e+01  -3.6427988889090699e+01  -2.9785618986605485e+01  -2.3413662225980659e+01  -2.0141512306679207e+01  -1.2345342745084416e+01  -4.5948065115076897e+00  6.7174128704338798e-01  1.2438706874256765e+01  1.9253477325819684e+01  2.1450729414872256e+01  2.7114629621295034e+01  3.2493731338768526e+01  3.9346170839298317e+01  4.1871250334727563e+01  4.9133703924686188e+01  5.1371496325251435e+01  6.0864315547437222e+01  7.0215201317569026e+01  7.9642783696207161e+01  8.0032146853845830e+01  9.1673700692585712e+01  1.0328427083997660e+02  1.2383649429432407e+02  1.5408680204970096e+02  1.3804938918112171e+02  1.7995710865849873e+02  1.9401297890273312e+02  2.0311469755382117e+02  2.1244205761096464e+02  2.3657197224876191e+02  2.6052325332708619e+02  2.6458639233295224e+02  3.1062381939502706e+02  3.1418725748757737e+02  3.5673950721721832e+02  3.5392400885974553e+02  4.0547923220105179e+02  4.6905837550112665e+02  4.3621151623911265e+02  5.2588624344668074e+02  5.5856050196878937e+02  5.2608910552614975e+02  6.2194388432278708e+02  6.7513260215255082e+02  7.0080199160174152e+02  7.4842308703901131e+02  7.2960527505083360e+02  8.3443080207457149e+02  9.0194750359893214e+02  8.8018670216704697e+02  9.1004514424203808e+02  9.1896602885847233e+02  9.8127716930762563e+02  1.0465760555893044e+03  1.1168091862862473e+03  1.1215371770387333e+03  1.1614942252603400e+03  1.1943918148618081e+03  1.2620345862894944e+03  1.3256859767318117e+03  1.3950381744889892e+03  1.3750883224814590e+03  1.4190026844484701e+03  1.4663572625644442e+03  1.5414704484410909e+03  1.5280777458432026e+03  1.5116321175750654e+03  1.5457445968756012e+03  1.5461751644513861e+03  1.5083248013166622e+03  1.4555307414564470e+03  1.4564325356140012e+03  1.4589959384886088e+03  1.4643322179381610e+03  1.3153937981287036e+03  1.2847599453619805e+03  1.3081959413716886e+03  1.2021971416821682e+03  1.1391872901438344e+03  1.1035912636914040e+03  1.0353208222315950e+03  9.5503365582183346e+02  8.0459099913765579e+02  8.0732660498660346e+02  7.2700993630022026e+02  6.0591191490065398e+02  5.6457421215308659e+02  5.1196670501791391e+02  4.4806369140025964e+02  3.6938428499178104e+02  3.4553913131017140e+02  3.1916670879374414e+02  2.8652722520494558e+02  2.4158584479365146e+02  2.1605586269441608e+02  1.9906992055473972e+02  1.7455305772543539e+02  1.5346805505900366e+02  1.1771532443664792e+02  1.1693037960757624e+02  7.5510133884107020e+01  7.2261339686836820e+01  6.4335990921188895e+01  5.2112283800437154e+01  4.0284402916520769e+01  3.0334206317664659e+01  3.0514754660365217e+01  9.6649300363220298e+00  1.8536643673682732e-01  3.9265585588709723e-01  6.2699394767557759e-01  -9.8186805774644466e+00  -6.4129657256286539e+00  -1.5184097688384433e+01  -2.0649804461216977e+01  -2.8601124968408040e+01  -3.1733264316089166e+01  -3.7841404846466475e+01  -3.5944553255539340e+01  -3.6604005886712372e+01  -4.7199195712308722e+01  -5.2985541614255737e+01  -5.1594129116294987e+01  -5.4032657142874108e+01  -5.4053711905121446e+01  -5.7528642155908351e+01  -5.7067289386793263e+01  -5.7513007229317019e+01  -5.8443777160784428e+01  -5.8890319324593818e+01  -6.1770833890223962e+01  -6.1759467049242339e+01  -6.2634059816861246e+01  -6.3476084258351101e+01  -6.4081830722199427e+01  -6.4382895666576701e+01  -6.5876459998555831e+01  -6.7346397409886720e+01  -6.9943854792964842e+01  -7.1638717039826247e+01  -7.3687554339142665e+01  -7.4340168429288994e+01  -7.5378596405652175e+01  -7.5549807235821930e+01  -7.7560414224467749e+01  -7.8122879658077053e+01  -7.9925463703597401e+01  -8.0490286881702616e+01  -8.2715962554458827e+01  -8.3350859634799988e+01  -8.5258694283979949e+01  -8.6546528925877325e+01  -8.7604358579989324e+01  -8.8406435244690940e+01  -9.0456593724986305e+01  -9.1627523128810324e+01  -9.3261852561788047e+01  -9.4823486636112335e+01  -9.6632070928284634e+01  -9.7609232270086039e+01  -9.8993858694561439e+01  -1.0040043528952347e+02  -1.0139371694796255e+02  -1.0254494663423840e+02  -1.0362846843976995e+02  -1.0451148273814515e+02  -1.0564624195029772e+02  -1.0601888125098242e+02  -1.0754018313523311e+02  -1.0773598423248480e+02  -1.0867936567322735e+02  -1.0943666243164714e+02  -1.0978957138471081e+02  -1.1080988436501016e+02  -1.1133479089950487e+02  -1.1256170013884983e+02  -1.1318444260211685e+02  -1.1387879516658968e+02  -1.1506313128257931e+02  -1.1537406331192429e+02  -1.1638206846663503e+02  -1.1687552660856309e+02  -1.1789936125550651e+02  -1.1844474055199449e+02  -1.1973535434666734e+02  -1.2003391644772205e+02  -1.2139744775326402e+02  -1.2193967714322305e+02  -1.2247360354453050e+02  -1.2316773617728558e+02  -1.2358693350154581e+02  -1.2416833668433559e+02  -1.0989860823834847e+02  -1.0977769260485874e+02  -1.0996607267377669e+02  -1.0952143573083811e+02  -1.0956993750076724e+02  -1.0936680615530459e+02  -1.0925900488836231e+02  -1.0907018288159648e+02  -1.0896706997569537e+02  -1.0879035156187351e+02  -1.0835831938631986e+02  -1.0857422790476218e+02  -1.0838243466986300e+02  -1.0780571275943167e+02  -1.0753545416610794e+02  -1.0732670413084695e+02  -1.0722733615416946e+02  -1.0702689510569753e+02  -1.0738558622310023e+02  -1.0712447718069514e+02  -1.0618915912348025e+02  -1.0609118998543646e+02  -1.0555783940006023e+02  -1.0480256967223147e+02  -1.0419633229512081e+02  -1.0287486082106587e+02  -1.0193392955181061e+02  -1.0120097617311626e+02  -1.0001319588345267e+02  -9.8834954327909315e+01  -9.7559424169251514e+01  -9.6191925034055188e+01  -9.4523705944370903e+01  -9.3077005202052092e+01  -9.1892819966142525e+01  -8.9325031377244727e+01  -8.7175370032811287e+01  -8.5511828914045381e+01  -8.4416450625820701e+01  -8.2196517757480223e+01  -8.0731244932405616e+01  -7.8531335226381003e+01  -7.7179913131585451e+01  -7.5640495056174643e+01  -7.3211557660999659e+01  -7.1019598699851798e+01  -6.9445479340169584e+01  -6.7355503019726854e+01  -6.5172488528549081e+01  -6.2453197101233727e+01  -5.9183265721722918e+01  -5.6711278527434182e+01  -5.5187615797889855e+01  -5.3642521043317139e+01  -5.1404887157582742e+01  -4.8967383977977299e+01  -4.5648264788757928e+01  -4.4475615460463310e+01  -4.1752615032411214e+01  -3.9803301325388794e+01  -3.5961043109617101e+01  -3.4447107151512377e+01  -3.1268057509959473e+01  -2.9163300126377656e+01  -2.5291935323298468e+01  -2.2028735498291123e+01  -1.7321111669348369e+01  -1.2335551515724816e+01  -6.5885665070938471e+00  -1.1032445352793903e+00  5.0522499079875143e+00  1.0080959512699435e+01  1.4804105057698264e+01  2.3547997034049665e+01  3.1227090754830389e+01  4.2087107838733623e+01  4.8585110615932145e+01  5.6535962454626443e+01  6.5615290730535492e+01  7.3694763271857013e+01  8.3468955228101152e+01  9.2144418075445174e+01  1.0422974052372741e+02  1.1712153931798389e+02  1.2941029513476681e+02  1.4649881222788264e+02  1.7097652092096556e+02  1.8801407987743571e+02  1.9985269052997168e+02  2.2144105776487322e+02  2.4337746995165662e+02  2.6226063559661213e+02  2.9243159682110820e+02  3.2025164242261940e+02  3.4749638207242901e+02  3.7395450158232313e+02  4.0281044726835239e+02  4.4470077252061640e+02  4.9457138708717099e+02  5.4294254626110330e+02  6.0275498630949335e+02  6.4988821305570707e+02  7.2099967722128793e+02  7.9298588849175087e+02  8.6918026155920893e+02  9.3046587264976392e+02  9.9230116782623088e+02  1.0316349001223700e+03  1.0898516284504688e+03  1.1878247331226028e+03  1.2410533606263664e+03  1.2931185325131760e+03  1.3490023693204619e+03  1.4129265585634223e+03  1.4699300542567082e+03  1.4901296375701857e+03  1.4971258037438256e+03  1.5640902722282933e+03  1.5974994583923990e+03  1.5884931319594589e+03  1.5730032047631275e+03  1.6589893690195490e+03  1.6591874771321550e+03  1.6391925295072328e+03  1.6131710273070880e+03  1.6316525241881075e+03  1.6429829899779465e+03  1.6249063572138116e+03  1.6097025212701976e+03  1.5548472616352747e+03  1.4866688896659805e+03  1.3978086172134490e+03  1.4504680795368727e+03  1.4360365914824881e+03  1.4270262187271026e+03  1.3819607553576429e+03  1.3104552079129753e+03  1.2199621773038552e+03  1.2040999621377048e+03  1.1942190101246886e+03  1.1716810082378761e+03  1.1098123665649280e+03  1.0637567396178856e+03  1.0298911862225734e+03  1.0237481431751667e+03  9.6663933589023077e+02  9.4408824487961476e+02  9.0553268978056019e+02  8.4584916302515171e+02  8.2040620903395734e+02  8.0937456191653985e+02  7.7611575729196602e+02  7.3591488135512554e+02  6.8544217990557252e+02  6.3548575139534614e+02  5.8087437399500857e+02  5.5529173626474767e+02  5.1786446301329886e+02  4.9128902652723445e+02  4.5265928649328760e+02  4.1657046949484379e+02  3.8201711671733335e+02  3.4590253972339536e+02  3.1690578671630504e+02  2.8873097983604146e+02  2.7446321256706517e+02  2.5365248890985603e+02  2.3706521931488885e+02  2.1590980625221215e+02  2.1092887765025932e+02  2.0837222165877517e+02  1.8853674484530379e+02  1.6427069075648268e+02  1.4722486521583224e+02  1.3869616027556205e+02  1.2658516072683761e+02  1.0736649785305040e+02  9.0160963507829862e+01  8.1464517321362550e+01  7.2873996806574780e+01  7.0198685964472929e+01  6.2173110156536005e+01  5.6207617505035621e+01  5.2858219178638024e+01  4.8330534350550977e+01  4.3463055972628901e+01  4.1659163083991736e+01  3.5393429248822585e+01  2.6512084954721235e+01  2.4728064124235917e+01  1.8881063211815718e+01  1.0956563363010135e+01  6.6774024807100609e+00  -4.0178606096678177e-01  -8.9525202422667860e+00  -1.4546677150523175e+01  -2.0831502060422796e+01  -2.4946923357818182e+01  -3.1490431251403788e+01  -3.5486235482712537e+01  -3.9138712511509794e+01  -4.1730315002055413e+01  -4.5766396474361500e+01  -4.8797741421198829e+01  -5.2059848384643779e+01  -5.3912971958807290e+01  -5.7972384164982188e+01  -6.1255370376854643e+01  -6.3644568366081351e+01  -6.6694813597127663e+01  -7.1013269967159701e+01  -7.2924009462607415e+01  -7.5482097125344652e+01  -7.7246188738314601e+01  -7.8316662421450118e+01  -8.1634773736299437e+01  -8.3893400733092790e+01  -8.6555785849763794e+01  -8.8524591153935276e+01  -9.0788853798768571e+01  -9.1358045001725870e+01  -9.3342610732884282e+01  -9.3914038998548918e+01  -9.5755945216608055e+01  -9.6829198758086704e+01  -9.7953364289406068e+01  -9.9584295976204785e+01  -1.0114672380224125e+02  -1.0132531033207825e+02  -1.0200090359721733e+02  -1.0280319281823974e+02  -1.0350162231994241e+02  -1.0455736763475049e+02  -1.0400427629955733e+02  -1.0436296418610570e+02  -1.0580830891384342e+02  -1.0713682460096543e+02  -1.0760261164108113e+02  -1.0793185304005928e+02  -1.0838175223103438e+02  -1.0850230938026147e+02  -1.0900967447687098e+02  -1.0910810433974565e+02  -1.0985339827694635e+02  -1.1002180361939122e+02  -1.1023286952855520e+02  -1.1007833031941810e+02  -1.0943105084952164e+02  -1.0976268655953668e+02  -1.1018024798918850e+02  -1.0998864445655117e+02  -1.0981010217994915e+02  -1.1013590997675574e+02  -1.1037749214451821e+02  -1.0959379581391882e+02  -1.0961241211043657e+02  -1.1817760186856833e+02  -1.2004787663901512e+02  -1.1404159878998881e+02  -1.1979212592501585e+02  -1.0921999911779666e+02  -1.1550365707505097e+02  -1.0363709424176170e+02  -1.0746356233599218e+02  -9.3807363376241383e+01  -9.8694824441431166e+01  -8.4107282831787671e+01  -8.5399122168319550e+01  -7.5348821405013908e+01  -7.1680850605538780e+01  -6.4356581729107830e+01  -5.6164664065314490e+01  -5.5619852794748688e+01  -3.8550361204162968e+01  -1.2240799054344303e+02  -4.7701031009669748e+01  -1.1853268188948392e+02  -1.2357424212953289e+02  -1.1341199806149837e+02  -1.1641304644279504e+02  -1.1058883011952398e+02  -1.1323559095403503e+02  -1.1653207646357073e+02  -1.6574785490717566e+01  -1.0767818166537981e+02  -1.2133651297138748e+02  -1.1470867123270634e+02  -3.7958656109529294e+01  -1.0606202882789775e+02  -1.1388189371348727e+02  -1.0022983063147623e+02  -1.0902166862628866e+02  -9.8826605053522485e+01  -1.2201203829434009e+02  9.0445429207282029e+00  -1.2413228052411014e+02  -1.1607794651995791e+02  -1.1366975471185182e+02  -1.0498104490902243e+02  -8.8808318313595663e+01  -1.2342540344656631e+02  -1.0198154634179946e+02  -8.8784982093111353e+01  -2.4715992835518104e+01  -1.1014076995421617e+02  -1.1819583567271459e+02  -1.0426469132118747e+02  3.3503913943942209e+01  -7.9799885682023969e+01  -9.2437131937721986e+01  -1.0842662265009406e+02  -1.1178745434727138e+02  -8.5204317733209525e+00  -1.0789325186042618e+02  -9.4706289074761187e+01  -9.4970001511290391e+01  -9.2797701846154510e+01  -1.1662915054003169e+02  -1.1590080408973522e+02  -7.9873693498627418e+01  -1.1223230734283817e+02  -1.0554956937199263e+02  -8.1014082920370271e+01  -7.2122634899158044e+01  4.9499859754119846e+01  -1.0019754458029657e+02  8.0837832741674180e+00  -1.0278091983161363e+02  -7.8864905025798961e+01  -6.9929875608444348e+01  -8.3855314940544218e+01  -8.4669442842283544e+01  7.5305995511999612e+01  -1.2041473933532234e+02  -1.1591976422887222e+02  -8.7009494822976762e+01  -6.3494103848476314e+01  -6.2608011484192133e+01  -8.6816038820221479e+01  -7.5595231511882218e+01  -1.1972541742579924e+02  3.7896065418940402e+01  -6.1157553561226308e+01  -6.3181660546638476e+01  -1.1720484907630498e+02  -4.6183706258150423e+01  -9.7668963176951351e+01  -1.0711506731916930e+02  -7.4923107661943135e+01  -1.1198993864149772e+02  1.0714955446253806e+02  -7.2364668952644308e+01  -6.7569538403691780e+01  -1.0088517648210845e+02  -5.9314300646969720e+01  -1.1061303890779011e+02  6.3025364665216891e+01  -1.2356052941526475e+02  -1.2481283648114409e+02  -1.2144982430074978e+02  -4.7067583397491973e+01  -1.1264754724664455e+02  -1.1847958969374119e+02  -1.1510097181221380e+02  -4.8616177767850779e+01  -1.2388331619791418e+02  -9.3105874087629445e+01  -1.1555497505256143e+02  -1.2446797491849081e+02  1.4866779940216978e+02  -7.1834812744642448e+01  -1.2159757739870203e+02  -1.1681278645719144e+02  -5.1837455784318337e+01  -1.2083323128685097e+02  -5.3289291812422469e+01  -3.2699037338437257e+01  -2.7009086404210628e+01  -1.2061211675844548e+02  -1.0979336193963961e+02  -1.2516317063328532e+02  -6.5460215316521058e+01  1.0836309699330758e+02  -1.1785034201084858e+02  -1.1699162777160952e+02  -1.0487401269782931e+02  -1.1321439297739138e+02  -5.9932064030854368e+00  -1.1084464823468008e+02  -6.2178903556974845e+01  -1.1267084497119252e+02  -4.1009435727699199e+01  -1.1223633433917492e+02  -1.1137079197322690e+02  1.8739292211902767e+02  -5.2730710606533634e+01  -1.0705341571772820e+02  -1.0899874324781926e+02  -1.0622631037450320e+02  -1.1207942639057654e+02  -1.1410901420223726e+02  -1.1377214058695354e+02  -1.2224353074542537e+02  -1.0984910340771472e+02  -1.2138658070587879e+02  -8.0237419871982198e+01  -1.1025541646330041e+02  -1.1616545518156316e+02  -1.1443126763650807e+02  -8.9618902127379769e+01  -1.1878166024453235e+02  -1.2258531038327595e+02  -1.0881048255231231e+02  -1.0304221070728359e+02  -9.8195383133825928e+01  -1.0269480435378389e+02  -1.0867847275686400e+02  -3.8907896527072154e+01  -8.6702196558461338e+01  -5.5842967601487345e+01  -9.6244794867622588e+01  -1.1816183910292436e+02  -1.1294000615684355e+02  -1.1177138007940624e+02  -1.0603374724028532e+02  -1.1339990403757677e+02  -1.0774210844208851e+02  -9.9989575134490096e+01  -8.0480455107274480e+01  -3.6484434034726448e+01  1.3980224867546616e+02  -9.6565564931342394e+00  -1.0630240153870101e+02  -1.1378203570945368e+02  -1.0452214215858825e+02  -9.2069576997984967e+01  -9.1590649730945117e+01  -8.7064820894018524e+01  -5.5648718410809686e+01  -1.0661072103209280e+02  -1.0847470766529051e+02  -9.8820269620363817e+01  -1.1777846164646861e+02  -9.8039193869555504e+01  -1.0123162929729587e+02  -2.9135547249164475e+01  2.2599576859843623e+02  2.5646791819735817e+01  -1.0360645917803514e+02  -1.0476202579437867e+02  -1.1815001842758521e+02  -1.0098896903327731e+02  -1.2074587193451954e+02  -9.1609429229308901e+01  -1.1167597691907362e+02  -1.5428752585162183e+01  -1.2026847354043375e+02  -1.1817962250385496e+02  -1.0243607263922156e+02  1.9547765096051231e+02  -6.8987091970483320e+01  -1.1249343527256437e+02  -1.1042726276506542e+02  -1.0129231161127041e+02  -6.4809477303874715e+01  -9.1835421801056142e+01  2.2378807230132939e+01  -8.7906555733754530e+01  -9.6942129829190762e+01  -9.1330016231195060e+01  -1.2266840707149478e+02  -4.9993797626760106e+01  -6.1659433934819120e+01  -1.0759410107336801e+02  -1.0679115608058781e+02  2.7625499752150347e+02  -1.0540738504027240e+02  -8.1692298810718157e+01  -7.8475954901605292e+01  4.4725395932334493e+01  -1.2577899281763216e+02  -1.2373451528553653e+02  -1.2574998191210082e+02  -1.1043182145710435e+02  -1.1487540881482653e+02  -1.1118502288120132e+01  -2.8424894351778779e+01  -9.9873860496919420e+01  -1.1317012103013599e+02  -1.1680704556237072e+02  -6.3609742398902220e+01  -9.7562108483026279e+01  -7.5793735851880770e+00  -8.5830060030641491e+01  1.2960129383669413e+01  2.4709468006031554e+02  4.0129639607655136e+01  -8.9688709903835445e+01  -1.0988643574976069e+02  -1.2296337030949911e+02  -1.1185396014354012e+02  -1.0741534610525107e+02  4.5072463730600365e+00  -1.1937907218942981e+02  9.3948297499449822e+00  -9.0382282566924587e+01  -8.0917512375711354e+01  -4.7925290665976078e+01  3.2585189303780697e+02  -8.2582484612964919e+01  -1.1159256752741572e+02  -7.7830669449999093e+01  -1.1603702786478389e+02  -7.6498764499894008e+01  -7.2472890406502984e+01  -2.0517236511415209e+01  -6.9869820233956077e+01  -7.3546461985471097e+01  -7.7332117663380913e+01  -8.2033464001983774e+01  3.0995279290011541e+02  -1.0596208655354897e+02  -7.0946673191021986e+01  -5.0848089457839109e+01  -4.5465549893822860e+01  -8.9805348888382284e+01  -9.3037551546385643e+01  -7.7106783810601669e+01  -8.2341128845612090e+01  -1.2523134857965097e+02  -4.0958072758956874e+01  -1.1930654042002146e+02  -2.8917207281422961e+01  -9.7377688191582976e+01  -2.3136396543718064e+01  4.5958981022122396e+00  7.0862748540375350e+01  -1.1872783796647748e+02  -1.1695162632255752e+02  -3.4854907703612696e+01  -8.1203714737744193e+01  -1.0579259456819238e+02  -9.7207224007110327e+01  3.8886366062963003e+02  3.5818564816248276e+01  -1.8227130235476000e+01  -7.3170774059827664e+01  -5.9781976075309096e+01  -7.7288020148169238e+01  -1.1809189332107970e+02  -7.761475231