<?xml version="1.0"?>
<VTKFile type="UnstructuredGrid"  version="0.1"  >
<UnstructuredGrid>
<Piece  NumberOfPoints="3920" NumberOfCells="6615">
<Points>
<DataArray  type="Float64"  NumberOfComponents="3"  format="ascii">1.25 0 0  1.249623523370255 0.03067653565364036 0  1.248494320256466 0.06133459290927252 0  1.246613070848363 0.09195570449958429 0  1.243980908340246 0.1225214254119508 0  1.240599418248387 0.1530133439990203 0  1.236470637455976 0.1834130930692022 0  1.231597052986177 0.2137023609503765 0  1.225981600504038 0.2438629025201603 0  1.219627662548161 0.2738765501960873 0  1.21253906649318 0.3037252248790798 0  1.2047200822443 0.333390946843623 0  1.196175419665261 0.3628558465680779 0  1.186910225741296 0.3921021754986144 0  1.176930081478776 0.4211123167402751 0  1.166240998543424 0.4498687956687352 0  1.154849415639108 0.4783542904563622 0  1.142762194629413 0.5065516425062373 0  1.129986616404304 0.5344438667878526 0  1.116530376494394 0.5620141620682582 0  1.102401580435444 0.5892459210324971 0  1.087608738885889 0.61612274028723 0  1.07216076250034 0.642628430241527 0  1.056066956562134 0.6687470248588714 0  1.039337015378182 0.6944627912745027 0  1.02198101643948 0.7197602392723067 0  1.004009414350806 0.7446241306155417 0  0.9854330345332579 0.7690394882257835 0  0.9662630667034212 0.7929916052045569 0  0.9465110581331058 0.8164660536922209 0  0.9261889066936989 0.8394486935587729 0  0.9053088536893338 0.8619256809213336 0  0.8838834764831844 0.8838834764831843 0  0.8619256809213337 0.9053088536893337 0  0.8394486935587729 0.9261889066936989 0  0.8164660536922209 0.9465110581331055 0  0.7929916052045569 0.9662630667034212 0  0.7690394882257835 0.9854330345332578 0  0.7446241306155419 1.004009414350806 0  0.7197602392723067 1.02198101643948 0  0.6944627912745028 1.039337015378182 0  0.6687470248588716 1.056066956562134 0  0.642628430241527 1.07216076250034 0  0.6161227402872301 1.087608738885889 0  0.5892459210324973 1.102401580435444 0  0.5620141620682583 1.116530376494394 0  0.5344438667878527 1.129986616404304 0  0.5065516425062373 1.142762194629413 0  0.4783542904563623 1.154849415639108 0  0.4498687956687353 1.166240998543424 0  0.4211123167402751 1.176930081478776 0  0.3921021754986145 1.186910225741296 0  0.3628558465680779 1.196175419665261 0  0.333390946843623 1.2047200822443 0  0.30372522487908 1.21253906649318 0  0.2738765501960872 1.219627662548161 0  0.2438629025201604 1.225981600504038 0  0.2137023609503767 1.231597052986177 0  0.1834130930692022 1.236470637455976 0  0.1530133439990203 1.240599418248387 0  0.122521425411951 1.243980908340246 0  0.09195570449958432 1.246613070848363 0  0.06133459290927266 1.248494320256466 0  0.03067653565364033 1.249623523370255 0  7.654042494670958e-17 1.25 0  -0.03067653565364018 1.249623523370255 0  -0.06133459290927251 1.248494320256466 0  -0.09195570449958416 1.246613070848363 0  -0.1225214254119508 1.243980908340246 0  -0.1530133439990202 1.240599418248387 0  -0.1834130930692021 1.236470637455976 0  -0.2137023609503766 1.231597052986177 0  -0.2438629025201602 1.225981600504038 0  -0.2738765501960871 1.219627662548161 0  -0.3037252248790798 1.21253906649318 0  -0.3333909468436229 1.2047200822443 0  -0.3628558465680777 1.196175419665261 0  -0.3921021754986143 1.186910225741296 0  -0.4211123167402749 1.176930081478776 0  -0.4498687956687352 1.166240998543424 0  -0.4783542904563621 1.154849415639108 0  -0.5065516425062372 1.142762194629413 0  -0.5344438667878524 1.129986616404304 0  -0.5620141620682584 1.116530376494394 0  -0.5892459210324972 1.102401580435444 0  -0.61612274028723 1.087608738885889 0  -0.642628430241527 1.07216076250034 0  -0.6687470248588713 1.056066956562134 0  -0.6944627912745025 1.039337015378182 0  -0.7197602392723067 1.02198101643948 0  -0.7446241306155417 1.004009414350806 0  -0.7690394882257834 0.9854330345332579 0  -0.7929916052045567 0.9662630667034213 0  -0.8164660536922207 0.9465110581331059 0  -0.8394486935587731 0.9261889066936988 0  -0.8619256809213337 0.9053088536893337 0  -0.8838834764831843 0.8838834764831844 0  -0.9053088536893334 0.8619256809213338 0  -0.9261889066936986 0.8394486935587732 0  -0.9465110581331058 0.8164660536922208 0  -0.9662630667034212 0.7929916052045569 0  -0.9854330345332578 0.7690394882257836 0  -1.004009414350806 0.7446241306155419 0  -1.02198101643948 0.7197602392723068 0  -1.039337015378182 0.6944627912745027 0  -1.056066956562134 0.6687470248588714 0  -1.07216076250034 0.6426284302415273 0  -1.087608738885889 0.6161227402872302 0  -1.102401580435444 0.5892459210324973 0  -1.116530376494394 0.5620141620682586 0  -1.129986616404304 0.5344438667878525 0  -1.142762194629413 0.5065516425062374 0  -1.154849415639108 0.4783542904563624 0  -1.166240998543424 0.4498687956687354 0  -1.176930081478776 0.4211123167402754 0  -1.186910225741296 0.3921021754986143 0  -1.196175419665261 0.362855846568078 0  -1.2047200822443 0.3333909468436231 0  -1.21253906649318 0.3037252248790801 0  -1.219627662548161 0.2738765501960876 0  -1.225981600504038 0.2438629025201608 0  -1.231597052986177 0.2137023609503765 0  -1.236470637455976 0.1834130930692023 0  -1.240599418248387 0.1530133439990204 0  -1.243980908340246 0.122521425411951 0  -1.246613070848363 0.09195570449958466 0  -1.248494320256466 0.06133459290927246 0  -1.249623523370255 0.03067653565364041 0  -1.25 1.530808498934192e-16 0  -1.249623523370255 -0.0306765356536401 0  -1.248494320256466 -0.06133459290927215 0  -1.246613070848363 -0.09195570449958437 0  -1.243980908340246 -0.1225214254119507 0  -1.240599418248387 -0.1530133439990201 0  -1.236470637455976 -0.183413093069202 0  -1.231597052986177 -0.2137023609503762 0  -1.225981600504038 -0.2438629025201605 0  -1.219627662548161 -0.2738765501960873 0  -1.21253906649318 -0.3037252248790798 0  -1.2047200822443 -0.3333909468436228 0  -1.196175419665261 -0.3628558465680776 0  -1.186910225741296 -0.392102175498614 0  -1.176930081478776 -0.4211123167402752 0  -1.166240998543424 -0.4498687956687352 0  -1.154849415639108 -0.4783542904563621 0  -1.142762194629413 -0.5065516425062371 0  -1.129986616404304 -0.5344438667878523 0  -1.116530376494394 -0.5620141620682583 0  -1.102401580435444 -0.5892459210324971 0  -1.087608738885889 -0.6161227402872299 0  -1.07216076250034 -0.6426284302415269 0  -1.056066956562134 -0.6687470248588712 0  -1.039337015378182 -0.6944627912745025 0  -1.02198101643948 -0.7197602392723067 0  -1.004009414350806 -0.7446241306155416 0  -0.9854330345332579 -0.7690394882257834 0  -0.9662630667034213 -0.7929916052045566 0  -0.946511058133106 -0.8164660536922207 0  -0.9261889066936989 -0.8394486935587731 0  -0.9053088536893338 -0.8619256809213336 0  -0.8838834764831847 -0.8838834764831843 0  -0.8619256809213338 -0.9053088536893334 0  -0.8394486935587733 -0.9261889066936986 0  -0.8164660536922214 -0.9465110581331053 0  -0.7929916052045574 -0.9662630667034209 0  -0.7690394882257841 -0.9854330345332574 0  -0.7446241306155414 -1.004009414350806 0  -0.7197602392723066 -1.02198101643948 0  -0.6944627912745027 -1.039337015378182 0  -0.6687470248588716 -1.056066956562134 0  -0.6426284302415273 -1.07216076250034 0  -0.6161227402872302 -1.087608738885889 0  -0.5892459210324973 -1.102401580435444 0  -0.5620141620682586 -1.116530376494394 0  -0.5344438667878531 -1.129986616404304 0  -0.506551642506238 -1.142762194629413 0  -0.4783542904563629 -1.154849415639108 0  -0.4498687956687349 -1.166240998543424 0  -0.4211123167402749 -1.176930081478776 0  -0.3921021754986143 -1.186910225741296 0  -0.3628558465680781 -1.196175419665261 0  -0.3333909468436231 -1.2047200822443 0  -0.3037252248790802 -1.21253906649318 0  -0.2738765501960876 -1.219627662548161 0  -0.2438629025201608 -1.225981600504038 0  -0.2137023609503771 -1.231597052986176 0  -0.1834130930692029 -1.236470637455976 0  -0.1530133439990199 -1.240599418248387 0  -0.1225214254119506 -1.243980908340246 0  -0.09195570449958419 -1.246613070848363 0  -0.06133459290927254 -1.248494320256466 0  -0.03067653565364049 -1.249623523370255 0  -2.296212748401287e-16 -1.25 0  0.03067653565364003 -1.249623523370255 0  0.06133459290927207 -1.248494320256466 0  0.09195570449958373 -1.246613070848363 0  0.1225214254119501 -1.243980908340246 0  0.1530133439990195 -1.240599418248387 0  0.1834130930692024 -1.236470637455976 0  0.2137023609503766 -1.231597052986177 0  0.2438629025201604 -1.225981600504038 0  0.2738765501960872 -1.219627662548161 0  0.3037252248790797 -1.21253906649318 0  0.3333909468436227 -1.2047200822443 0  0.3628558465680776 -1.196175419665261 0  0.3921021754986139 -1.186910225741296 0  0.4211123167402745 -1.176930081478776 0  0.4498687956687345 -1.166240998543424 0  0.4783542904563625 -1.154849415639108 0  0.5065516425062375 -1.142762194629413 0  0.5344438667878527 -1.129986616404304 0  0.5620141620682583 -1.116530376494394 0  0.589245921032497 -1.102401580435444 0  0.6161227402872298 -1.087608738885889 0  0.6426284302415269 -1.07216076250034 0  0.6687470248588712 -1.056066956562134 0  0.6944627912745023 -1.039337015378182 0  0.7197602392723061 -1.02198101643948 0  0.7446241306155411 -1.004009414350806 0  0.7690394882257838 -0.9854330345332576 0  0.792991605204557 -0.9662630667034211 0  0.8164660536922209 -0.9465110581331058 0  0.8394486935587729 -0.9261889066936989 0  0.8619256809213336 -0.9053088536893338 0  0.8838834764831842 -0.8838834764831847 0  0.9053088536893333 -0.8619256809213339 0  0.9261889066936986 -0.8394486935587733 0  0.9465110581331053 -0.8164660536922214 0  0.9662630667034209 -0.7929916052045574 0  0.9854330345332574 -0.7690394882257843 0  1.004009414350806 -0.7446241306155416 0  1.02198101643948 -0.7197602392723066 0  1.039337015378182 -0.6944627912745027 0  1.056066956562134 -0.6687470248588716 0  1.07216076250034 -0.6426284302415274 0  1.087608738885889 -0.6161227402872304 0  1.102401580435443 -0.5892459210324974 0  1.116530376494394 -0.5620141620682587 0  1.129986616404304 -0.5344438667878532 0  1.142762194629413 -0.50655164250623
[...]
<PointData  Scalars="f_5794"> 
<DataArray  type="Float64"  Name="f_5794"  format="ascii">-1.0685457694619778e+02  -1.0792168778796615e+02  -1.0815055716233046e+02  -1.0935788435222851e+02  -1.1033965939114029e+02  -1.1137596192619189e+02  -1.1223081809200454e+02  -1.1291467443027761e+02  -1.1296366784323345e+02  -1.1368999776115753e+02  -1.1342029218007448e+02  -1.1367009647241862e+02  -1.1422863630523635e+02  -1.1403485764663299e+02  -1.1446108086703018e+02  -1.1416862938560132e+02  -1.1485805401027318e+02  -1.1460179566992804e+02  -1.1484578716283606e+02  -1.1414101245611413e+02  -1.1373998432479732e+02  -1.1329990617465869e+02  -1.1249722588384365e+02  -1.1187091175053251e+02  -1.1136594445746269e+02  -1.1067810733181388e+02  -1.1036834833461879e+02  -1.0910306486746759e+02  -1.0823388436492480e+02  -1.0639182076025109e+02  -1.0521545121879576e+02  -1.0424677447108890e+02  -1.0310040238030626e+02  -1.0180333708331406e+02  -1.0114868701018368e+02  -9.9368938922837955e+01  -9.8502365427881017e+01  -9.7669240896785411e+01  -9.5631982972395178e+01  -9.5568369047683944e+01  -9.3542700046746546e+01  -9.2536496708571875e+01  -9.0681280244923002e+01  -8.9491363107268938e+01  -8.7076219366734364e+01  -8.5050391352565768e+01  -8.3666590182241919e+01  -8.1252593899606310e+01  -7.9144937341956833e+01  -7.6427820002673585e+01  -7.5153779332040486e+01  -7.2942453398759071e+01  -7.0351238165545638e+01  -6.7316195659377001e+01  -6.4584085231029050e+01  -6.2912200044429703e+01  -5.9659689548190563e+01  -5.6795272559098699e+01  -5.3984273323783697e+01  -5.0399727045351156e+01  -4.7606456117287593e+01  -4.3781015287545983e+01  -4.0409015094005916e+01  -3.6484105066620394e+01  -3.4095733647789721e+01  -2.8327746399322351e+01  -2.5009292775593281e+01  -2.1608496767900867e+01  -1.8237530342710976e+01  -1.3802717091209066e+01  -9.0758138282487408e+00  -4.1567694961265600e+00  2.1053893653036040e+00  4.5171659573919225e+00  1.2760622061655999e+01  1.4531113378669060e+01  1.7898904123574802e+01  2.1287840497246439e+01  2.7401517763563032e+01  3.0047212615135209e+01  3.6462987468501169e+01  4.5842045831214008e+01  5.4057753679410702e+01  5.6884832021678413e+01  6.4761899746468728e+01  7.3178697069066601e+01  9.0253171417323074e+01  1.0237786794537413e+02  1.0170688592773674e+02  1.2162260662604564e+02  1.3920012725577101e+02  1.4249533531243748e+02  1.5514385375085942e+02  1.7138208433406297e+02  1.8222583594901516e+02  2.0285932347555433e+02  2.3396744814351800e+02  2.4977251884952773e+02  2.7295961088462923e+02  2.9367651269428490e+02  3.2303392150205150e+02  3.4217496584297533e+02  3.5832672874104213e+02  3.8335275646138069e+02  4.0630953280479105e+02  4.3536820010770839e+02  4.7159380623611787e+02  5.1970318285388623e+02  5.5441949252668667e+02  6.0782283980028603e+02  6.5381126701134826e+02  6.8376906019060755e+02  7.2945982847634980e+02  7.6710921376667307e+02  7.8680540938020590e+02  8.5568152463266881e+02  9.1348678434255737e+02  9.6029562654001040e+02  1.0286967139498001e+03  1.0909631915722716e+03  1.1421458907388601e+03  1.1942629252635681e+03  1.2339024479410664e+03  1.2751484368832848e+03  1.3140620197915955e+03  1.3478342922944114e+03  1.3768989444734671e+03  1.4006530131550205e+03  1.4186541673689514e+03  1.4283390498036833e+03  1.4345588374325025e+03  1.4285139079715343e+03  1.4120056408348094e+03  1.3999913432920725e+03  1.3738879102354572e+03  1.3402709097988704e+03  1.2937684244377251e+03  1.2432289983965291e+03  1.1923498386092988e+03  1.1513465279945467e+03  1.0955929769178208e+03  1.0279135205985863e+03  9.7018604640956380e+02  8.9477762846803125e+02  8.3865564041913694e+02  7.4985368415030268e+02  7.1735687216040981e+02  6.3407249012812690e+02  5.6890501412047490e+02  5.2154757197540914e+02  4.7208504687113765e+02  4.0751821624318865e+02  3.4517723360003379e+02  3.0602428017442850e+02  2.7344384770932186e+02  2.4294832952417502e+02  2.1889407740563900e+02  1.9714740268374265e+02  1.7753755633208343e+02  1.5490521646282380e+02  1.3649304962863641e+02  1.2042336873423112e+02  1.0006230777039666e+02  8.7259754937817902e+01  7.0780072793241800e+01  6.1457372285882407e+01  5.0395184124813156e+01  4.5146006201050561e+01  4.0844025786290352e+01  3.0052815067146973e+01  1.7496879282728344e+01  1.2238070808169494e+01  8.5639157742728589e+00  1.1912242365108456e+00  -1.8015260862085205e+00  -3.4045716567371289e+00  -7.2321798232175487e+00  -1.2406214161918808e+01  -1.2020277978956479e+01  -1.9257934861851719e+01  -2.1544851372631332e+01  -2.7551992754628785e+01  -3.2223321462766307e+01  -3.3277196853136971e+01  -3.2688100370554395e+01  -3.7400838537981805e+01  -3.8451489714670913e+01  -4.0934486042026194e+01  -4.2716851893944295e+01  -4.6158596995541274e+01  -4.6007376410478876e+01  -4.6936118846426304e+01  -5.0624995924368470e+01  -5.0752865339931390e+01  -5.2649625643357105e+01  -5.3935427502129031e+01  -5.5055337063907473e+01  -5.6557992767499414e+01  -5.7467895520003154e+01  -5.8425975573272815e+01  -6.0565075406090678e+01  -6.1914568899562319e+01  -6.3432112312872079e+01  -6.3382008897655638e+01  -6.4778059638089914e+01  -6.5472826661322813e+01  -6.5991354678630884e+01  -6.6426196555056706e+01  -6.7798036363022902e+01  -6.7800041619337534e+01  -6.9150938424765371e+01  -6.9158261666172180e+01  -7.1284048734522329e+01  -7.2113130868935414e+01  -7.2715624987607782e+01  -7.3387565460360221e+01  -7.3631423088891438e+01  -7.3395558655741752e+01  -7.4902438352264994e+01  -7.5211358689046293e+01  -7.6375438490539949e+01  -7.7695565038090749e+01  -7.8598413949747993e+01  -7.8416482095206646e+01  -7.9081211781022589e+01  -7.9857688104923739e+01  -8.0468697948945717e+01  -8.1010235900265911e+01  -8.1921494393161311e+01  -8.2402103583306669e+01  -8.3553435831899577e+01  -8.3784797520037230e+01  -8.5523399270173414e+01  -8.5496331284366264e+01  -8.6923909358523190e+01  -8.7601832652112151e+01  -8.8251489027237881e+01  -8.9262947222750171e+01  -9.0029036763273083e+01  -9.1579220883446268e+01  -9.2367362899176555e+01  -9.3032425834003362e+01  -9.4319201354019484e+01  -9.4979897233924618e+01  -9.6212024212225970e+01  -9.7011150686934116e+01  -9.8303885700422214e+01  -9.8921445094350332e+01  -1.0043375225719548e+02  -1.0081927208811261e+02  -1.0245831429011766e+02  -1.0319373976123165e+02  -1.0396762246704863e+02  -1.0499774022775061e+02  -1.0559635967878934e+02  -1.0649389165481588e+02  -9.2645399881673782e+01  -9.1893074361445684e+01  -9.1979914114063334e+01  -9.0938308264984485e+01  -9.0572591719530507e+01  -9.0175614844857122e+01  -8.9469668998659017e+01  -8.8549444329597279e+01  -8.7889722276146856e+01  -8.7342560451396366e+01  -8.6719495677368840e+01  -8.6470407103345536e+01  -8.5799313989949468e+01  -8.4261832975798342e+01  -8.3145905152872075e+01  -8.2221121547164628e+01  -8.1626645926074048e+01  -8.0575516767123673e+01  -8.0388124433795610e+01  -7.9941880691263307e+01  -7.8497592458969791e+01  -7.7919674349448599e+01  -7.7443747610941372e+01  -7.6590423706817489e+01  -7.5777641914002317e+01  -7.4971880993021827e+01  -7.3913943808927471e+01  -7.3947927024991529e+01  -7.4056456014224921e+01  -7.3291310433179902e+01  -7.1964428165489537e+01  -7.1196880238186750e+01  -7.0150129183395123e+01  -6.9445344276659497e+01  -6.9439315307755038e+01  -6.8618334798965179e+01  -6.8017439711580707e+01  -6.6868065725212134e+01  -6.6170554007488860e+01  -6.5051561904683808e+01  -6.4404721313934346e+01  -6.3304200137752524e+01  -6.3030534506750662e+01  -6.2134201702970735e+01  -6.0967666508051707e+01  -5.9077963388835130e+01  -5.7875056494060196e+01  -5.6241448725667382e+01  -5.4261965314923053e+01  -5.2261259921414656e+01  -5.0212135682834671e+01  -4.7933482859621542e+01  -4.5746001208719960e+01  -4.4555825455337327e+01  -4.2930621086341027e+01  -4.1476484659773057e+01  -3.7967913135171315e+01  -3.5401587799947748e+01  -3.2600752947846360e+01  -3.0814884453270757e+01  -2.6258357723743362e+01  -2.4228661763571750e+01  -2.0448824545547101e+01  -1.7023780426785635e+01  -1.1627084748285430e+01  -1.0314575049692559e+01  -4.9853997596336610e+00  -2.0088954186966701e+00  1.2903975354846979e+00  4.1298806171386531e+00  8.7901855898067485e+00  1.3612549261577371e+01  1.6718833771669249e+01  2.0936632269066706e+01  2.6455926840991332e+01  3.5850429527675615e+01  4.1530350226531660e+01  4.9260422507868554e+01  5.6430407912820627e+01  6.5309962213087346e+01  7.1828589629917403e+01  7.6315962610001861e+01  8.9685598683910612e+01  9.5427549835222038e+01  1.0897517008796575e+02  1.2378509103299265e+02  1.3967816412201876e+02  1.5275854532164459e+02  1.6369079864732095e+02  1.8091922446982522e+02  1.9410438832095878e+02  2.1060534848738757e+02  2.3453968823509976e+02  2.5067256835081437e+02  2.7197350458577858e+02  3.0058740186564211e+02  3.2997896359835880e+02  3.6175251759299766e+02  4.1357173163874467e+02  4.6113323185160573e+02  5.2590132421011765e+02  5.5820712435923394e+02  6.1122846167436956e+02  6.5635722800568760e+02  7.2230421250879317e+02  7.8214792693918525e+02  8.4000396190444098e+02  8.8312147936611484e+02  9.3383184426203809e+02  1.0113710770313197e+03  1.0633269892838043e+03  1.1011870473952340e+03  1.1581187541669010e+03  1.1854279937874589e+03  1.2458348316009260e+03  1.2746157241270439e+03  1.3348523799182717e+03  1.3881277102510330e+03  1.4194022716879399e+03  1.4565232784563643e+03  1.4856304544444317e+03  1.5070346592944668e+03  1.5297236622482969e+03  1.5514039292795339e+03  1.5556429618448121e+03  1.5649114878045052e+03  1.5594884550793977e+03  1.5524972018475032e+03  1.5358841714822220e+03  1.5189006620166469e+03  1.4959162558618839e+03  1.4714198083177864e+03  1.4433124185263944e+03  1.4042434944782026e+03  1.3649640012921811e+03  1.3244450898918838e+03  1.2824158504112725e+03  1.2431758467390102e+03  1.1889304152735376e+03  1.1377195807796988e+03  1.0803858179564816e+03  1.0134653805043565e+03  9.6458140025850923e+02  9.1405210662438390e+02  8.5831926078126378e+02  7.9110613819490698e+02  7.6741076243395241e+02  7.1964572124819392e+02  6.9207739735010534e+02  6.5826982296086032e+02  6.2766469294642991e+02  5.7219096771696024e+02  5.2654619529172498e+02  4.8178514739627616e+02  4.6597796791572551e+02  4.2141286233668427e+02  3.9385142000717690e+02  3.6974916586992646e+02  3.5661513134884632e+02  3.3069284830917564e+02  3.1260689263190346e+02  2.9908101896493685e+02  2.7077785934185772e+02  2.5201986699309344e+02  2.2612192957782634e+02  2.1767115864848674e+02  1.9466202063755162e+02  1.7225271310175771e+02  1.5269092295014454e+02  1.4901629256530978e+02  1.4659500302810468e+02  1.3469787787941445e+02  1.1703882881218237e+02  1.0274032081086379e+02  9.2814477298383608e+01  8.8869879622106453e+01  7.8252676543510589e+01  7.1251622357101638e+01  6.1059444193558136e+01  5.2254689478824538e+01  4.7510388245723426e+01  4.0242471406493458e+01  3.7721031138779743e+01  3.2782840474176879e+01  2.5744559804986974e+01  2.0572899353098947e+01  1.8826602522057140e+01  1.5578992065211366e+01  9.9685278622643274e+00  8.3110213234766999e+00  3.6309183504067937e+00  -2.6608401713133580e+00  -4.7531474330564860e+00  -8.8378133178551828e+00  -1.4890626421926168e+01  -1.7600389481171785e+01  -2.0627000509355479e+01  -2.3377039974147980e+01  -2.9056948617112830e+01  -3.1891940865072826e+01  -3.4910668187305184e+01  -3.7602586158870736e+01  -4.1253233037978802e+01  -4.4957341181945168e+01  -4.8489043398200273e+01  -5.0336570082843068e+01  -5.3244264188768064e+01  -5.6660764847639271e+01  -5.9017151728862650e+01  -6.1212966733334184e+01  -6.4339976418979489e+01  -6.5687958106917037e+01  -6.8136314283378070e+01  -7.0241753981486482e+01  -7.1543717046530460e+01  -7.4609418541082363e+01  -7.5604635968552884e+01  -7.8023215829939303e+01  -7.9608374777185475e+01  -8.1000794477928039e+01  -8.1703991071008247e+01  -8.4498193205193743e+01  -8.5522587246123436e+01  -8.7405358098278867e+01  -8.7664774723945627e+01  -8.7963271631925281e+01  -8.9183274269135737e+01  -9.1212956099136889e+01  -9.1850849324871575e+01  -9.2895860088561989e+01  -9.3115850347279888e+01  -9.3385985880849759e+01  -9.4353136425104339e+01  -9.4048257436139323e+01  -9.4364717210908339e+01  -9.5282669982491285e+01  -9.6113698816517996e+01  -9.6633975522759670e+01  -9.6902413082449343e+01  -9.6900536143267090e+01  -9.6811955085484229e+01  -9.7026599208627019e+01  -9.7316846897290588e+01  -9.8253975721247130e+01  -9.7999195917433596e+01  -9.7860736282277458e+01  -9.6979451582574995e+01  -9.6038397718055293e+01  -9.6784460508059482e+01  -9.6567745860905973e+01  -9.5750814051197381e+01  -9.4802769247882807e+01  -9.4664567485955189e+01  -9.4481895955967389e+01  -9.3189183474961936e+01  -9.2913692676947207e+01  -1.0060938793996799e+02  -1.0578010177043078e+02  -9.3146926719119719e+01  -1.0755417257327545e+02  -8.6304733165797799e+01  -1.0493618131961875e+02  -7.9717357255331777e+01  -9.8338820958069277e+01  -7.3515450480634684e+01  -9.0422388253479255e+01  -6.8664217996160843e+01  -7.9060143233701979e+01  -6.3239433923222720e+01  -6.6807575354090034e+01  -5.5187967076697603e+01  -5.3149866834800221e+01  -4.7990352159681834e+01  -3.7253939355281979e+01  -1.0646170381013903e+02  -3.8274863312569124e+01  -9.9791639610254805e+01  -1.1025478046327969e+02  -9.1714385071109660e+01  -1.0036539484800605e+02  -8.7727398515718988e+01  -9.3692792348779875e+01  -1.0309616108808136e+02  -2.0706072177914582e+01  -8.4594704611279838e+01  -1.0983179725150517e+02  -1.0326451147091558e+02  -2.7560767535405301e+01  -8.1248591757954415e+01  -1.0414697370747125e+02  -7.8190260140092860e+01  -9.8681981921447957e+01  -7.5231417822103367e+01  -1.0485048071801863e+02  -2.2692597158695058e+00  -1.1006087151604011e+02  -9.6121366968519652e+01  -9.5651869458754121e+01  -9.6021741529307590e+01  -7.2632188660126090e+01  -1.1169165620487094e+02  -9.2688193226440447e+01  -7.0205982927681745e+01  -1.5040520978100545e+01  -8.8074978649670086e+01  -1.0864922907044036e+02  -8.1996671322833677e+01  1.2557371130383675e+01  -6.7401753918951798e+01  -8.5769614276647658e+01  -8.4393820131240062e+01  -9.0616467205560710e+01  -4.8152476541263347e+00  -9.9805060313136650e+01  -7.5650573011267952e+01  -7.2939749727939827e+01  -8.4256363469000163e+01  -1.0198847829323512e+02  -1.0411862123447894e+02  -6.4285407397903924e+01  -1.0110299349717565e+02  -9.5469313788583875e+01  -7.4547872939408023e+01  -6.2419574379123183e+01  2.6827770566333939e+01  -9.2476762487895058e+01  1.0402992304933251e+01  -7.7348881012696623e+01  -7.2390995640763464e+01  -5.8077040532668335e+01  -7.0503052197030300e+01  -6.7265769249651228e+01  5.0754443810679398e+01  -1.0770716396022340e+02  -9.6129352551106194e+01  -8.0564947488890510e+01  -5.9628422969170991e+01  -5.2998032682220263e+01  -7.8742969595490564e+01  -6.5668268680295753e+01  -1.0414019567113935e+02  3.2650647583099513e+01  -5.2346923855893550e+01  -5.8901009105113360e+01  -1.0622530490252389e+02  -4.4274017969122795e+01  -8.9063379168312338e+01  -8.3457170163471261e+01  -6.0734337680371475e+01  -9.0254792873361410e+01  8.0558497417602211e+01  -6.7213414933216427e+01  -5.9695748718947648e+01  -7.8017235542080428e+01  -4.6818621649346348e+01  -1.0111005721604462e+02  5.6042191250546686e+01  -1.0722478959404353e+02  -1.1173022337955744e+02  -1.0343957479951210e+02  -4.4220048890752921e+01  -9.1263003654418398e+01  -9.9447734970728959e+01  -9.4487414938079354e+01  -4.0305303017723730e+01  -1.1252447755226527e+02  -8.5345299428680818e+01  -9.6862287636843163e+01  -1.0953906264345204e+02  9.8241653543116570e+01  -6.5633308053247490e+01  -1.0989077906477458e+02  -9.9771085194021609e+01  -5.2163294462896324e+01  -1.1058420840203290e+02  -4.5399525595789008e+01  -3.0341126689296985e+01  -2.7507487504040526e+01  -1.0380311395659137e+02  -8.7318404330353303e+01  -1.1270371826834706e+02  -5.5397979709208279e+01  8.9211828517703978e+01  -9.9443198059490754e+01  -9.6674390564212530e+01  -9.5999081710499908e+01  -9.7514736557685438e+01  -1.1628018165479251e+01  -8.8811062559288956e+01  -5.1355159621450298e+01  -9.5568226974613836e+01  -3.0095872052763312e+01  -9.3153609999679674e+01  -9.0906416720659152e+01  1.3658022783541594e+02  -3.7255955103008908e+01  -8.4356471292416302e+01  -8.6802714582269317e+01  -8.0537389055996300e+01  -1.0307298383904299e+02  -1.0037339099545255e+02  -1.0109269155261460e+02  -1.0714808691770521e+02  -8.6675610390715931e+01  -1.0818025622764446e+02  -6.6657037982581272e+01  -1.0071885395660421e+02  -1.0727348767084176e+02  -9.3193799832964359e+01  -7.1480123197310860e+01  -1.0767436141836679e+02  -1.0984026203543415e+02  -8.5124381088717769e+01  -7.9452506339169005e+01  -7.8055682937175874e+01  -8.0735955865211153e+01  -8.6143451906101888e+01  -3.6914221311234712e+01  -6.9952552738107471e+01  -5.2712403655393885e+01  -7.4207579205130131e+01  -1.0434227333072407e+02  -1.0137943447791385e+02  -1.0041743777721472e+02  -8.2358774683353914e+01  -9.3060421001208141e+01  -8.3623149163477819e+01  -9.1171025373636738e+01  -7.4267255368707964e+01  -2.6939280504207815e+01  1.1773606739967495e+02  -1.6791392252035617e+01  -9.8204367125406833e+01  -1.0386143131401718e+02  -7.9866363941301344e+01  -7.1133059582664146e+01  -7.4635575571937991e+01  -7.3043314488611230e+01  -4.3221053271402702e+01  -9.6134260938505022e+01  -9.7591741629812546e+01  -7.6536883663476473e+01  -1.0601405171882925e+02  -7.3618310303458657e+01  -7.5689949264964028e+01  -1.6751516922703225e+01  1.6288811316732702e+02  8.7737179049541023e+00  -9.5424753341965541e+01  -7.8698706624984126e+01  -1.0288562814889906e+02  -9.2887910852210808e+01  -1.0206447663489773e+02  -7.1782032973212239e+01  -9.0226784743403371e+01  -1.9999831028106293e+01  -1.0233499203711320e+02  -1.0605758573687696e+02  -9.2857951221188443e+01  1.5810658839395506e+02  -5.8695916825726300e+01  -1.0164655224601727e+02  -8.8136942859640470e+01  -7.7673716221503867e+01  -6.0888541372521566e+01  -7.4026529339242032e+01  5.7006625410121172e+00  -6.8236361657262464e+01  -8.9922436597725493e+01  -8.4454425441424434e+01  -1.0901053222149247e+02  -3.3835833577040361e+01  -5.3102521891568294e+01  -9.7497874686860840e+01  -9.8001726488030030e+01  2.1880574123553433e+02  -9.6237819519888077e+01  -6.9401207589667024e+01  -6.7494171634418791e+01  2.4078853661103842e+01  -1.1198750121766915e+02  -1.0663074261517912e+02  -1.1339630654429152e+02  -8.9053866103287987e+01  -1.0339137885681180e+02  -4.9416006630097291e+00  -1.6436797724807676e+01  -9.0042060608263341e+01  -9.8794927286195232e+01  -9.6768522245143799e+01  -5.7050554501279038e+01  -8.9591085654724409e+01  -3.1107184865346711e+00  -7.0134283321228324e+01  -7.3645726914897591e-01  2.0276388368260234e+02  1.9481663164401574e+01  -8.2032831008669959e+01  -9.8817517541160072e+01  -1.1220109073890896e+02  -9.3694673774453676e+01  -8.2219854157837972e+01  -7.1793614650809099e+00  -1.0818047140750947e+02  1.1542213512205786e+01  -8.3211920725952154e+01  -6.4729673900503656e+01  -4.6717216791075003e+01  2.5702639682321114e+02  -6.8383019254621559e+01  -9.0000709780300269e+01  -6.5769344734090552e+01  -1.0609730366021911e+02  -7.0936275334685448e+01  -6.1578777451154394e+01  -8.6622487182013401e+00  -6.2201929436314742e+01  -6.4635708421322761e+01  -7.2596855678065424e+01  -7.6549593321712663e+01  2.4330479761025452e+02  -8.1894453457769785e+01  -5.8647578414328997e+01  -4.1989828214080667e+01  -3.5533488304478929e+01  -8.1406469239143192e+01  -8.4513310928520625e+01  -6.2870920526080255e+01  -6.6952217818842612e+01  -1.1326200454355062e+02  -3.8119731735744153e+01  -1.0277196917091536e+02  -2.8546224774318162e+01  -7.6708820793605980e+01  -2.3553758253023890e+01  8.5960610989544364e+00  4.3925145463891369e+01  -1.0938335049796216e+02  -1.0675361711426210e+02  -2.4282055108579918e+01  -7.4629646900163465e+01  -8.3102337212620796e+01  -8.9058334050163765e+01  3.0964828021420919e+02  1.5564426755596280e+01  -1.0202239983234904e+01  -6.0541650771922505e+01  -5.1660733802722980e+01  -7.0781978975488698e+01  -9.8729905385454018e+01  -6.296591453