<?xml version="1.0"?>
<VTKFile type="UnstructuredGrid"  version="0.1"  >
<UnstructuredGrid>
<Piece  NumberOfPoints="3920" NumberOfCells="6615">
<Points>
<DataArray  type="Float64"  NumberOfComponents="3"  format="ascii">1.25 0 0  1.249623523370255 0.03067653565364036 0  1.248494320256466 0.06133459290927252 0  1.246613070848363 0.09195570449958429 0  1.243980908340246 0.1225214254119508 0  1.240599418248387 0.1530133439990203 0  1.236470637455976 0.1834130930692022 0  1.231597052986177 0.2137023609503765 0  1.225981600504038 0.2438629025201603 0  1.219627662548161 0.2738765501960873 0  1.21253906649318 0.3037252248790798 0  1.2047200822443 0.333390946843623 0  1.196175419665261 0.3628558465680779 0  1.186910225741296 0.3921021754986144 0  1.176930081478776 0.4211123167402751 0  1.166240998543424 0.4498687956687352 0  1.154849415639108 0.4783542904563622 0  1.142762194629413 0.5065516425062373 0  1.129986616404304 0.5344438667878526 0  1.116530376494394 0.5620141620682582 0  1.102401580435444 0.5892459210324971 0  1.087608738885889 0.61612274028723 0  1.07216076250034 0.642628430241527 0  1.056066956562134 0.6687470248588714 0  1.039337015378182 0.6944627912745027 0  1.02198101643948 0.7197602392723067 0  1.004009414350806 0.7446241306155417 0  0.9854330345332579 0.7690394882257835 0  0.9662630667034212 0.7929916052045569 0  0.9465110581331058 0.8164660536922209 0  0.9261889066936989 0.8394486935587729 0  0.9053088536893338 0.8619256809213336 0  0.8838834764831844 0.8838834764831843 0  0.8619256809213337 0.9053088536893337 0  0.8394486935587729 0.9261889066936989 0  0.8164660536922209 0.9465110581331055 0  0.7929916052045569 0.9662630667034212 0  0.7690394882257835 0.9854330345332578 0  0.7446241306155419 1.004009414350806 0  0.7197602392723067 1.02198101643948 0  0.6944627912745028 1.039337015378182 0  0.6687470248588716 1.056066956562134 0  0.642628430241527 1.07216076250034 0  0.6161227402872301 1.087608738885889 0  0.5892459210324973 1.102401580435444 0  0.5620141620682583 1.116530376494394 0  0.5344438667878527 1.129986616404304 0  0.5065516425062373 1.142762194629413 0  0.4783542904563623 1.154849415639108 0  0.4498687956687353 1.166240998543424 0  0.4211123167402751 1.176930081478776 0  0.3921021754986145 1.186910225741296 0  0.3628558465680779 1.196175419665261 0  0.333390946843623 1.2047200822443 0  0.30372522487908 1.21253906649318 0  0.2738765501960872 1.219627662548161 0  0.2438629025201604 1.225981600504038 0  0.2137023609503767 1.231597052986177 0  0.1834130930692022 1.236470637455976 0  0.1530133439990203 1.240599418248387 0  0.122521425411951 1.243980908340246 0  0.09195570449958432 1.246613070848363 0  0.06133459290927266 1.248494320256466 0  0.03067653565364033 1.249623523370255 0  7.654042494670958e-17 1.25 0  -0.03067653565364018 1.249623523370255 0  -0.06133459290927251 1.248494320256466 0  -0.09195570449958416 1.246613070848363 0  -0.1225214254119508 1.243980908340246 0  -0.1530133439990202 1.240599418248387 0  -0.1834130930692021 1.236470637455976 0  -0.2137023609503766 1.231597052986177 0  -0.2438629025201602 1.225981600504038 0  -0.2738765501960871 1.219627662548161 0  -0.3037252248790798 1.21253906649318 0  -0.3333909468436229 1.2047200822443 0  -0.3628558465680777 1.196175419665261 0  -0.3921021754986143 1.186910225741296 0  -0.4211123167402749 1.176930081478776 0  -0.4498687956687352 1.166240998543424 0  -0.4783542904563621 1.154849415639108 0  -0.5065516425062372 1.142762194629413 0  -0.5344438667878524 1.129986616404304 0  -0.5620141620682584 1.116530376494394 0  -0.5892459210324972 1.102401580435444 0  -0.61612274028723 1.087608738885889 0  -0.642628430241527 1.07216076250034 0  -0.6687470248588713 1.056066956562134 0  -0.6944627912745025 1.039337015378182 0  -0.7197602392723067 1.02198101643948 0  -0.7446241306155417 1.004009414350806 0  -0.7690394882257834 0.9854330345332579 0  -0.7929916052045567 0.9662630667034213 0  -0.8164660536922207 0.9465110581331059 0  -0.8394486935587731 0.9261889066936988 0  -0.8619256809213337 0.9053088536893337 0  -0.8838834764831843 0.8838834764831844 0  -0.9053088536893334 0.8619256809213338 0  -0.9261889066936986 0.8394486935587732 0  -0.9465110581331058 0.8164660536922208 0  -0.9662630667034212 0.7929916052045569 0  -0.9854330345332578 0.7690394882257836 0  -1.004009414350806 0.7446241306155419 0  -1.02198101643948 0.7197602392723068 0  -1.039337015378182 0.6944627912745027 0  -1.056066956562134 0.6687470248588714 0  -1.07216076250034 0.6426284302415273 0  -1.087608738885889 0.6161227402872302 0  -1.102401580435444 0.5892459210324973 0  -1.116530376494394 0.5620141620682586 0  -1.129986616404304 0.5344438667878525 0  -1.142762194629413 0.5065516425062374 0  -1.154849415639108 0.4783542904563624 0  -1.166240998543424 0.4498687956687354 0  -1.176930081478776 0.4211123167402754 0  -1.186910225741296 0.3921021754986143 0  -1.196175419665261 0.362855846568078 0  -1.2047200822443 0.3333909468436231 0  -1.21253906649318 0.3037252248790801 0  -1.219627662548161 0.2738765501960876 0  -1.225981600504038 0.2438629025201608 0  -1.231597052986177 0.2137023609503765 0  -1.236470637455976 0.1834130930692023 0  -1.240599418248387 0.1530133439990204 0  -1.243980908340246 0.122521425411951 0  -1.246613070848363 0.09195570449958466 0  -1.248494320256466 0.06133459290927246 0  -1.249623523370255 0.03067653565364041 0  -1.25 1.530808498934192e-16 0  -1.249623523370255 -0.0306765356536401 0  -1.248494320256466 -0.06133459290927215 0  -1.246613070848363 -0.09195570449958437 0  -1.243980908340246 -0.1225214254119507 0  -1.240599418248387 -0.1530133439990201 0  -1.236470637455976 -0.183413093069202 0  -1.231597052986177 -0.2137023609503762 0  -1.225981600504038 -0.2438629025201605 0  -1.219627662548161 -0.2738765501960873 0  -1.21253906649318 -0.3037252248790798 0  -1.2047200822443 -0.3333909468436228 0  -1.196175419665261 -0.3628558465680776 0  -1.186910225741296 -0.392102175498614 0  -1.176930081478776 -0.4211123167402752 0  -1.166240998543424 -0.4498687956687352 0  -1.154849415639108 -0.4783542904563621 0  -1.142762194629413 -0.5065516425062371 0  -1.129986616404304 -0.5344438667878523 0  -1.116530376494394 -0.5620141620682583 0  -1.102401580435444 -0.5892459210324971 0  -1.087608738885889 -0.6161227402872299 0  -1.07216076250034 -0.6426284302415269 0  -1.056066956562134 -0.6687470248588712 0  -1.039337015378182 -0.6944627912745025 0  -1.02198101643948 -0.7197602392723067 0  -1.004009414350806 -0.7446241306155416 0  -0.9854330345332579 -0.7690394882257834 0  -0.9662630667034213 -0.7929916052045566 0  -0.946511058133106 -0.8164660536922207 0  -0.9261889066936989 -0.8394486935587731 0  -0.9053088536893338 -0.8619256809213336 0  -0.8838834764831847 -0.8838834764831843 0  -0.8619256809213338 -0.9053088536893334 0  -0.8394486935587733 -0.9261889066936986 0  -0.8164660536922214 -0.9465110581331053 0  -0.7929916052045574 -0.9662630667034209 0  -0.7690394882257841 -0.9854330345332574 0  -0.7446241306155414 -1.004009414350806 0  -0.7197602392723066 -1.02198101643948 0  -0.6944627912745027 -1.039337015378182 0  -0.6687470248588716 -1.056066956562134 0  -0.6426284302415273 -1.07216076250034 0  -0.6161227402872302 -1.087608738885889 0  -0.5892459210324973 -1.102401580435444 0  -0.5620141620682586 -1.116530376494394 0  -0.5344438667878531 -1.129986616404304 0  -0.506551642506238 -1.142762194629413 0  -0.4783542904563629 -1.154849415639108 0  -0.4498687956687349 -1.166240998543424 0  -0.4211123167402749 -1.176930081478776 0  -0.3921021754986143 -1.186910225741296 0  -0.3628558465680781 -1.196175419665261 0  -0.3333909468436231 -1.2047200822443 0  -0.3037252248790802 -1.21253906649318 0  -0.2738765501960876 -1.219627662548161 0  -0.2438629025201608 -1.225981600504038 0  -0.2137023609503771 -1.231597052986176 0  -0.1834130930692029 -1.236470637455976 0  -0.1530133439990199 -1.240599418248387 0  -0.1225214254119506 -1.243980908340246 0  -0.09195570449958419 -1.246613070848363 0  -0.06133459290927254 -1.248494320256466 0  -0.03067653565364049 -1.249623523370255 0  -2.296212748401287e-16 -1.25 0  0.03067653565364003 -1.249623523370255 0  0.06133459290927207 -1.248494320256466 0  0.09195570449958373 -1.246613070848363 0  0.1225214254119501 -1.243980908340246 0  0.1530133439990195 -1.240599418248387 0  0.1834130930692024 -1.236470637455976 0  0.2137023609503766 -1.231597052986177 0  0.2438629025201604 -1.225981600504038 0  0.2738765501960872 -1.219627662548161 0  0.3037252248790797 -1.21253906649318 0  0.3333909468436227 -1.2047200822443 0  0.3628558465680776 -1.196175419665261 0  0.3921021754986139 -1.186910225741296 0  0.4211123167402745 -1.176930081478776 0  0.4498687956687345 -1.166240998543424 0  0.4783542904563625 -1.154849415639108 0  0.5065516425062375 -1.142762194629413 0  0.5344438667878527 -1.129986616404304 0  0.5620141620682583 -1.116530376494394 0  0.589245921032497 -1.102401580435444 0  0.6161227402872298 -1.087608738885889 0  0.6426284302415269 -1.07216076250034 0  0.6687470248588712 -1.056066956562134 0  0.6944627912745023 -1.039337015378182 0  0.7197602392723061 -1.02198101643948 0  0.7446241306155411 -1.004009414350806 0  0.7690394882257838 -0.9854330345332576 0  0.792991605204557 -0.9662630667034211 0  0.8164660536922209 -0.9465110581331058 0  0.8394486935587729 -0.9261889066936989 0  0.8619256809213336 -0.9053088536893338 0  0.8838834764831842 -0.8838834764831847 0  0.9053088536893333 -0.8619256809213339 0  0.9261889066936986 -0.8394486935587733 0  0.9465110581331053 -0.8164660536922214 0  0.9662630667034209 -0.7929916052045574 0  0.9854330345332574 -0.7690394882257843 0  1.004009414350806 -0.7446241306155416 0  1.02198101643948 -0.7197602392723066 0  1.039337015378182 -0.6944627912745027 0  1.056066956562134 -0.6687470248588716 0  1.07216076250034 -0.6426284302415274 0  1.087608738885889 -0.6161227402872304 0  1.102401580435443 -0.5892459210324974 0  1.116530376494394 -0.5620141620682587 0  1.129986616404304 -0.5344438667878532 0  1.142762194629413 -0.50655164250623
[...]
<PointData  Scalars="f_9067842"> 
<DataArray  type="Float64"  Name="f_9067842"  format="ascii">1.0825969636091328e+00  1.0922470901325088e+00  1.1190157424239000e+00  1.1297465505042357e+00  1.1478988216964228e+00  1.1591200753531392e+00  1.1776749054900475e+00  1.1884802151140375e+00  1.2044264325942153e+00  1.2113379466567880e+00  1.2392589547848625e+00  1.2442509660980630e+00  1.2550742545962423e+00  1.2831085253719998e+00  1.2948940044156134e+00  1.3047676554418266e+00  1.3116657658937438e+00  1.3249118954458059e+00  1.3517042952116454e+00  1.3475008822539456e+00  1.3661620275272635e+00  1.3530457382935404e+00  1.3816935613316275e+00  1.3841310494225905e+00  1.4129094768381372e+00  1.4017050885071021e+00  1.4074184322879884e+00  1.4361177524899873e+00  1.4412788552716731e+00  1.4369997379743606e+00  1.4508060257124316e+00  1.4469375121826387e+00  1.4633436033412626e+00  1.4493676960428306e+00  1.4535900586543498e+00  1.4685884150540818e+00  1.4410894369940548e+00  1.4489309072433227e+00  1.4508569009161703e+00  1.4415207987148944e+00  1.4485338947179061e+00  1.4563039626006109e+00  1.4352151732798704e+00  1.4299011788251113e+00  1.4320281940093493e+00  1.4272285504013591e+00  1.4193730157037863e+00  1.4256992244969182e+00  1.4268995870157350e+00  1.3973666508887161e+00  1.3742810799701217e+00  1.3735146186410645e+00  1.3650982226242534e+00  1.3695074057004173e+00  1.3567067806496385e+00  1.3319380628629476e+00  1.3259431662411196e+00  1.3170714326274278e+00  1.2987182709249874e+00  1.2767278410453125e+00  1.2613833698696082e+00  1.2259084306461947e+00  1.1989931666616764e+00  1.1548558088690115e+00  1.1355676900566958e+00  1.1284887833281054e+00  1.1018725870192410e+00  1.0819301110905757e+00  1.0233088009244828e+00  1.0902595993307724e+00  1.2899928315637068e+00  1.6485075059571601e+00  2.1916906734836301e+00  2.6006174978182064e+00  3.4141689569015217e+00  4.0709194478062178e+00  4.6601389101626243e+00  5.7264514120580809e+00  6.5568764559529962e+00  7.4809399370966849e+00  8.6448900049518116e+00  9.9151362266269789e+00  1.1230034425009483e+01  1.2691527086809788e+01  1.4366439158094172e+01  1.6141521496424883e+01  1.7684419567174544e+01  2.0025821531878812e+01  2.1687985414590642e+01  2.4658009437561727e+01  2.6902284843936883e+01  2.9139476781899251e+01  3.0418897647981368e+01  3.2712394544144985e+01  3.6288667449424857e+01  3.8544732971208120e+01  4.1833414089794580e+01  4.4644754993822545e+01  4.8336123738778142e+01  5.1761095749646110e+01  5.5544588107458928e+01  5.9429384589340344e+01  6.2213398477212273e+01  6.4418791720346817e+01  6.8673604161349800e+01  7.2754999465814052e+01  7.5172477831358933e+01  8.0897207834106140e+01  8.3098028429755004e+01  8.6480003735237602e+01  9.0003986942140969e+01  9.2852811372570301e+01  9.7285895027819933e+01  9.8845518977406215e+01  1.0044705499580076e+02  1.0497673882817094e+02  1.0971710371109683e+02  1.1240052104261672e+02  1.1526832905778704e+02  1.1819538500921766e+02  1.2002184581967153e+02  1.2080355744038015e+02  1.2073066751209642e+02  1.1975341070720275e+02  1.1771075367173478e+02  1.1441207838443228e+02  1.1097797168772226e+02  1.0658065342118194e+02  1.0103347736297791e+02  9.5860476453096595e+01  9.0042094583312419e+01  8.3284928707188044e+01  7.5906665167629214e+01  6.9658711826374571e+01  6.1436903787186544e+01  5.5583617070624101e+01  4.9324320895130917e+01  4.4155181649400426e+01  3.8644985469124080e+01  3.3538307117060832e+01  2.9134058770428346e+01  2.4202177515725388e+01  2.2209194677421284e+01  1.9344824258697283e+01  1.7493860287291703e+01  1.5200420023968253e+01  1.2996852081713753e+01  1.1532548190785826e+01  9.5723667373834527e+00  8.1119030561801875e+00  7.0549708147271950e+00  5.9076858900036306e+00  4.9091083567218883e+00  4.4046614543313867e+00  3.8062522311622904e+00  3.2419664899656238e+00  2.7457242825808139e+00  2.3584221433681165e+00  2.0352724493487475e+00  1.8250683131577714e+00  1.6699074603193185e+00  1.5666928804710232e+00  1.4725179788395277e+00  1.4176192215948431e+00  1.3886139583676180e+00  1.3774805438549991e+00  1.3916029263607359e+00  1.4119218814621028e+00  1.4280053886579125e+00  1.4532219046441546e+00  1.4857986556055938e+00  1.5078144247477214e+00  1.5388217062902023e+00  1.5545866542618498e+00  1.5564860583730589e+00  1.5710688023918038e+00  1.5505133243134102e+00  1.5346129503810630e+00  1.5214184718077952e+00  1.4736305588360137e+00  1.4328029825329220e+00  1.3732304450028641e+00  1.3290241367174074e+00  1.2617926151865873e+00  1.2577385739915381e+00  1.2249141546487934e+00  1.1860999869005266e+00  1.2211655312109886e+00  1.2094027515770149e+00  1.2018773304820507e+00  1.1518374298674641e+00  1.1742111037775373e+00  1.1602038269176140e+00  1.1454532447554326e+00  1.1201082711637245e+00  1.1080068236109306e+00  1.0683240414689437e+00  1.0486931085811853e+00  1.0263567599124397e+00  9.9980300690451573e-01  9.8709334807102622e-01  9.6878053792232421e-01  9.5022005058093129e-01  9.2995747713018806e-01  9.1605777914044817e-01  8.9813812152110473e-01  8.8191098540909174e-01  8.6488801388508318e-01  8.5501667705127915e-01  8.3546891012715185e-01  8.2692606829047743e-01  8.1515742241604405e-01  8.0331858077662210e-01  7.9636590228111770e-01  7.8639810374913555e-01  7.7724494605249683e-01  7.8086797821339815e-01  7.6928813426881593e-01  7.6757354617214246e-01  7.6168608221179723e-01  7.5683336550003089e-01  7.5499639158421683e-01  7.5470613861110458e-01  7.5242731186761613e-01  7.5729177143800674e-01  7.5543145281075075e-01  7.5866113670412427e-01  7.6554448489720361e-01  7.6751853011967419e-01  7.7232669719632596e-01  7.7691501601041002e-01  7.8184450049611132e-01  7.8846531010526666e-01  7.9745270790435852e-01  8.0325421041556411e-01  8.1224041883515474e-01  8.2359974755691012e-01  8.3154895951989982e-01  8.4193409113635376e-01  8.4893593363213593e-01  8.6445142125781937e-01  8.7158153423455043e-01  8.8456595168684582e-01  8.9991941338494208e-01  9.1055457334314316e-01  9.2371034769892058e-01  9.3516774119488022e-01  9.5038915845998584e-01  9.6180344000348894e-01  9.8269209995580320e-01  9.9773846878196770e-01  1.0038863830322797e+00  1.0282017996771264e+00  1.0369734952509722e+00  1.0550892538830474e+00  1.0663630445635608e+00  1.4189852168461172e+00  1.4820379300519948e+00  1.4820195464742436e+00  1.5119413819005492e+00  1.6298284733240187e+00  1.7750619171448339e+00  1.9149510286287172e+00  2.0213773887917292e+00  2.0945785800248697e+00  2.1492582174111194e+00  2.2179194027275790e+00  2.2896561137757980e+00  2.3765555179776041e+00  2.4623918807454959e+00  2.5391146099671391e+00  2.5827643371203117e+00  2.5975268177469837e+00  2.6880236687553185e+00  2.8346557936186896e+00  2.9366340101433899e+00  3.0152699631064031e+00  3.0688888241782664e+00  3.1139849222788865e+00  3.1679714892351711e+00  3.2611022817420245e+00  3.3242210459624419e+00  3.4369980886157534e+00  3.5506861218109314e+00  3.6304343244479904e+00  3.7248803011401272e+00  3.7297078107706607e+00  3.8142761882559126e+00  3.8801664830605929e+00  3.9432510925031634e+00  4.0275828289209414e+00  4.1250442175727473e+00  4.1945115858189093e+00  4.2330918579935002e+00  4.2922060366439467e+00  4.3735919485743340e+00  4.4849237217759637e+00  4.4889068298796131e+00  4.5464502310596551e+00  4.5174734090884723e+00  4.6461965250367916e+00  4.6830751012857323e+00  4.7002099930891612e+00  4.6578894056084987e+00  4.7933572043639421e+00  4.7479060329971281e+00  4.7729571496112246e+00  4.7930392191514644e+00  4.8089362820109596e+00  4.9033714360417058e+00  4.8410086657912643e+00  4.8577671427385933e+00  4.8572681752174836e+00  4.8247532118052963e+00  4.7994445484041242e+00  4.7378543073426274e+00  4.7143256574400505e+00  4.7399789844525300e+00  4.6341374307822045e+00  4.5098227766288987e+00  4.3420896024611348e+00  4.3053819671854576e+00  4.2572071536042388e+00  4.2612753901320337e+00  4.1801978774641393e+00  4.0328207448260391e+00  3.8790113242656550e+00  3.8028812992519527e+00  3.6823778380006922e+00  3.5006611761269402e+00  3.3505146733319888e+00  3.2011238120728307e+00  3.0516729155454199e+00  2.8526520344103532e+00  2.6458555883016008e+00  2.4935196888251645e+00  2.3041781182804200e+00  2.0666380664065249e+00  1.8798746649129039e+00  1.7515511977837064e+00  1.6141298644121829e+00  1.5007664281841013e+00  1.4203590738401788e+00  1.3767871273435806e+00  1.3223193306800831e+00  1.3002667518842932e+00  1.3230679065394475e+00  1.3675764794707077e+00  1.4474917013234609e+00  1.5843101965949746e+00  1.7470103697056405e+00  1.9663487436664109e+00  2.2692486047280158e+00  2.6177669642976715e+00  3.0272178701616590e+00  3.5834570346218197e+00  4.0824469350126718e+00  4.8762520144836996e+00  5.5640803829339651e+00  6.3425685462047836e+00  7.6063673522479318e+00  8.7196286954576205e+00  9.9263986143828706e+00  1.1809185675740732e+01  1.3131749065755738e+01  1.4914104182445474e+01  1.6999769906449103e+01  1.8904364198111420e+01  2.1511515818188013e+01  2.3309219608675775e+01  2.5313580511586530e+01  2.8645092970775199e+01  3.2757284204338831e+01  3.6801406335430784e+01  4.1828375517244268e+01  4.5894332177273121e+01  5.1287900282139482e+01  5.5851691486284345e+01  6.1234955117781581e+01  6.7530840910565587e+01  7.3051276557321188e+01  7.8786351944634859e+01  8.4712839838970737e+01  8.9916743497529964e+01  9.5069562882094033e+01  9.9806823994785063e+01  1.0374141711451080e+02  1.0815613019342999e+02  1.1160085066408806e+02  1.1463217248242292e+02  1.1740908456824553e+02  1.1933529784082896e+02  1.2038655810007774e+02  1.2097768394729417e+02  1.2092562777746288e+02  1.2014690865415868e+02  1.1877539253907030e+02  1.1720872487286127e+02  1.1449869352375671e+02  1.1158347519228747e+02  1.0917121819418415e+02  1.0525044082352092e+02  1.0265755614062130e+02  1.0026629310505599e+02  9.8184009069701006e+01  9.6215791347655539e+01  9.4356213727469992e+01  9.1351525211796655e+01  8.8455757477679626e+01  8.5797355262237048e+01  8.2574037532817982e+01  7.8728300240217322e+01  7.6253546653132688e+01  7.3336965755467986e+01  7.0561474814746973e+01  6.7490550217027916e+01  6.4450031911206267e+01  6.0737619541520985e+01  5.8067074993252909e+01  5.4944251840914546e+01  5.2086324477201501e+01  4.9745476219198693e+01  4.7201272805711618e+01  4.4647245366099035e+01  4.1880257104566532e+01  3.9730757172124385e+01  3.7425458543943634e+01  3.5315965661378904e+01  3.2832791043960540e+01  3.0683478495768760e+01  2.8377350762612078e+01  2.6897383733329107e+01  2.5213238823213068e+01  2.3717598120304515e+01  2.1761123899972379e+01  2.0287134563717352e+01  1.8500158922361280e+01  1.6957085122596869e+01  1.5438563781196398e+01  1.4197652930691817e+01  1.2992058768539177e+01  1.1647187211769875e+01  1.0771767075793866e+01  9.7517553661615501e+00  8.9450397525515744e+00  8.1743664496708348e+00  7.6176974717556760e+00  6.8677614601063226e+00  6.2224656132047320e+00  5.8799637005249288e+00  5.4341389058811185e+00  4.8737236325210507e+00  4.5954945442270780e+00  4.3016722486413368e+00  4.0948313076576106e+00  3.8530370722164555e+00  3.6069845974518815e+00  3.3630600604219891e+00  3.1843265887636267e+00  2.9653104823044893e+00  2.7579706194936819e+00  2.5950248073224897e+00  2.4139578343808101e+00  2.2595937441898730e+00  2.0945646062024608e+00  1.9644047380706424e+00  1.8183705463200956e+00  1.6938117427567470e+00  1.5606366783961281e+00  1.4507929747413866e+00  1.3613248662775002e+00  1.2288902985647459e+00  1.1311867153130959e+00  1.0413018433155958e+00  9.5781831655924254e-01  8.9877156202718811e-01  8.3464148053156806e-01  7.4870183671899115e-01  6.9337810814141831e-01  6.3372161167768715e-01  6.0892812175505640e-01  5.5512959733171108e-01  4.9828189667333728e-01  5.3200118209296587e-01  5.2492180095465568e-01  4.7636438808290210e-01  4.1759654494408172e-01  4.2611362028840932e-01  4.4345924358409472e-01  4.6767268234835147e-01  4.7760336701638090e-01  4.5103627303370147e-01  4.0807342185319490e-01  5.0711620779841127e-01  5.5787366804910199e-01  5.4919345608725367e-01  5.7613320271246304e-01  5.7763124871886196e-01  6.5207998369128939e-01  7.0367146694551164e-01  7.0094274756430397e-01  7.3880638559028988e-01  8.4416416858652010e-01  8.9240038062374860e-01  8.4971091635135276e-01  9.2019664463617978e-01  9.0757050187539579e-01  1.0631467488044712e+00  1.1998670974949222e+00  1.2678189852067743e+00  1.2947827667096139e+00  1.3158098843390789e+00  1.0910180136989580e+00  1.0094768872599287e+00  1.1586392019478193e+00  9.3460707372188723e-01  1.2410237224923775e+00  8.8728724700228823e-01  1.2886877618695058e+00  8.4504659009217153e-01  1.3507072893839387e+00  8.1231979485595751e-01  1.3672755976604152e+00  8.2193666704844548e-01  1.4385770715057511e+00  8.8493536034443399e-01  1.5717643828022925e+00  1.0986257288659875e+00  1.6444301776566892e+00  1.3644407684681741e+00  1.0621906144216997e+00  1.7680591419250455e+00  1.0469857159049074e+00  1.0726719527798627e+00  1.0390648860542662e+00  1.0852275744347017e+00  1.4823815386099206e+00  1.3024971699091763e+00  9.1687148820645126e-01  2.0726623079372510e+00  1.0133408357372249e+00  1.0703738829177452e+00  7.7074142835268078e-01  1.8616033560417209e+00  1.6700075232789688e+00  1.0570035290427593e+00  1.0183531813866631e+00  6.8116200651599457e-01  1.9655161844688303e+00  1.0597607047890687e+00  3.2954831849463018e+00  1.0924245546624154e+00  1.0023424361679587e+00  1.2819446376220234e+00  1.0495192313272836e+00  1.0125934263205509e+00  1.1227744799255506e+00  6.6544835829234417e-01  2.0558066079032593e+00  1.8709666484502758e+00  9.7451614229054817e-01  1.1487350712545346e+00  9.4677967944454544e-01  5.8536387682996072e+00  1.0119460367148105e+00  1.0409316491558469e+00  1.6874090222859488e+00  1.4316469258152431e+00  1.8904831346129041e+00  1.1461419072397665e+00  9.2981250591767062e-01  2.3091822350662992e+00  7.4684314216291170e-01  1.0019285703703602e+00  8.2741082814876965e-01  2.2412107016787233e+00  7.0639211568580529e-01  6.5343528807241613e-01  1.0184214666867490e+00  9.9877937856223808e-01  9.5214958961389531e+00  1.1245505263799322e+00  1.8592927250231881e+00  2.1220451181026263e+00  9.6132246712747382e-01  2.3335477311809467e+00  9.3531270594203519e-01  2.4295953542241220e+00  1.4548936686760282e+01  9.6747558811110923e-01  1.1338688727150978e+00  1.1076211168877008e+00  9.7911425919641537e-01  1.0798963408521118e+00  8.7395092572262434e-01  9.4436919817144183e-01  1.0386523674638950e+00  1.7103998900722930e+00  2.6003729682336747e+00  1.2966116347401948e+00  8.8816375887588239e-01  9.6716254265556989e-01  7.0860856548279838e-01  1.2648756472738978e+00  2.6185116879769335e+00  1.2023286699315130e+00  2.0795361736533557e+01  1.0697030934342218e+00  9.7184643877067911e-01  1.2969438967396862e+00  1.1020620049744645e+00  8.4143367261637092e-01  1.5291777954959531e+00  1.0853013725260716e+00  1.1400263857136439e+00  1.0385308951596650e+00  1.7987567909717725e+00  9.4485675326559782e-01  1.0095567007210846e+00  9.5893933956472399e-01  2.6322712444970882e+00  1.1986547591590162e+00  8.0123534447624456e-01  1.1813955889057530e+00  1.1083956633457144e+00  2.5615161029994223e+01  1.2779462468120661e+00  1.0323742900973514e+00  1.1037990090583960e+00  1.0131768910083616e+00  1.2142584864940726e+00  2.8961805184879816e+00  2.3560517476156009e+00  1.1308843378130011e+00  1.0555805559139975e+00  1.8430694448573772e+00  1.1841656215388197e+00  2.6647598821147924e+00  1.3786362983274745e+00  1.0843655404243648e+00  1.0521520973993379e+00  8.2729210090549099e-01  1.1830441985404252e+00  1.8238363415333378e+00  1.1638248930950696e+00  1.0288928128215582e+00  1.2828989873627317e+00  2.6921610914586949e+00  1.4955732272169111e+00  1.6103168199974101e+00  3.1200444110242746e+01  1.3004412445420841e+00  8.9427199349405873e-01  9.0739556352261574e-01  2.1478526893593757e+00  1.2313199688105634e+00  9.8914690810762684e-01  9.1230660868362745e-01  1.0478855534819147e+00  1.3598200676222147e+00  1.0145078581989655e+00  1.3510307222056150e+00  1.0057601107473639e+00  1.2374652239699695e+00  1.0652994535608986e+00  1.3574192738782467e+00  9.9427500327861740e-01  1.0418074159988711e+00  1.9519878901410388e+00  1.0983966316263922e+00  8.7274208453105184e-01  8.7692303319529985e-01  1.0860937397816639e+00  1.0230475245310191e+00  1.4601159371786139e+00  1.6925672118772159e+00  1.6648120882082187e+00  9.7823720086724231e-01  8.1325374343362844e-01  7.4929463364519744e-01  1.0821508724877198e+00  1.3005289152139274e+00  1.4665463251132032e+00  7.1426263474938334e-01  8.3600522818404255e-01  1.3659370688775958e+00  1.3499784179854384e+00  3.3366321344634757e+00  1.2616155780094032e+00  9.2908406631106877e-01  1.5490888525124937e+00  2.7752229057381599e+00  8.6984580362025476e-01  8.4688536792367108e-01  1.1244830990854404e+00  6.6079756876417617e-01  6.7308314620225851e-01  1.1897399044519070e+00  8.7553025842531829e-01  2.5353499445084333e+00  2.4409037266624716e+00  2.6399699223681359e+00  3.8335005482361588e+01  3.9461988115175459e+00  1.2689653092873563e+00  2.2787839909608159e+00  1.0392754444120009e+00  8.8059901156485065e-01  1.0219840675761398e+00  1.7206897157175087e+00  1.3299723833641361e+00  1.2251546504103563e+00  1.0527139395132101e+00  9.0146835764842725e-01  6.6138843131605496e-01  1.4828380185771530e+00  1.4109215434725968e+00  7.5523444685305485e-01  1.0719881743666630e+00  1.6074030090595055e+00  9.3422638400997271e-01  1.0398465078340513e+00  5.6917086453575978e+00  2.8386096372441743e+00  1.2655736221009704e+00  1.2704770846548288e+00  1.0478041087557493e+00  1.2529804026854012e+00  1.5556571129493058e+00  7.1903672772258209e-01  9.6131190999170602e-01  4.5465040640544615e+01  7.0390378814038523e-01  8.8980280649958221e-01  8.7628058105252604e-01  7.2713636313935703e+00  1.1699716281408792e+00  1.0873063584807043e+00  1.2282327762292049e+00  1.7624723561000473e+00  7.8492912946103521e-01  2.6093766418110338e+00  1.5168747220566552e+00  7.0273881890176859e-01  1.1106530974207423e+00  9.6456361251680012e-01  9.6895364130010109e-01  1.0092411242717974e+00  1.6610995043861654e+00  1.1305417732974363e+00  2.5016154117721991e+00  1.7444806716329120e+00  8.5956988637165850e+00  7.6254557204323903e-01  7.0013682452887716e-01  1.2593027332517779e+00  1.4450163089699295e+00  2.1576427732314176e+00  4.3959466317047431e+00  9.6949829150969791e-01  2.4596067935765804e+00  8.8260549244376574e-01  3.0961062625664315e+00  1.1804989044937495e+00  5.1304749437632040e+01  1.0561649347849951e+00  8.9888223352303276e-01  1.2342007797495975e+00  1.0819975220527296e+00  9.1012091009177065e-01  1.3237280816322787e+00  2.8252287828066454e+00  9.3077293172410058e-01  9.0931205619987565e-01  1.2472205255460154e+00  1.2459402789626974e+00  2.3289546483008823e+00  1.2804945940941761e+00  3.2850054913034752e+00  1.7242476654045926e+00  2.5905904688590975e+00  9.0987051194391000e-01  8.2211680848858870e-01  1.9082586979293061e+00  1.8267514276800143e+00  1.2145707522272073e+00  1.9799206782943315e+00  1.0663900758091409e+00  1.7558390509660895e+00  1.0077244778556782e+00  2.6564099896404003e+00  1.6492839575858242e+00  1.0933283613459126e+01  1.3199072439438706e+00  1.0056837067155155e+00  2.5836744736108432e+00  1.1089398904366068e+00  8.4324142422155557e-01  7.0536936271443218e-01  5.8355227991462719e+01  5.3657481230198805e+00  1.5607302468102324e+00  1.9469249928506462e+00  1.5272462927877581e+00  1.2750954505023804e+00  9.8289771232774714e-01  3.2248996413304281e+00  1.3372002984762352e+00  2.7745307188755959e+00  1.1545053922265673e+00  8.8120133416319257e-01  2.9370964568351372e+00  1.8571409827234282e+00  1.2245930638946028e+00  1.0536003983491253e+00  1.6042925493044131e+00  1.3412110150553810e+01  6.3987103214645957e-01  1.0687346202693631e+00  1.0209929192945955e+00  3.1806363847650641e+00  7.3940670726236322e+00  8.2305885589653105e-01  8.7181290101496012e-01  9.3029994024561635e-01  9.2825772500372850e-01  1.0652322383784254e+00  2.0416375508564868e+00  1.1561717228457937e+00  1.1206057