<?xml version="1.0"?>
<VTKFile type="UnstructuredGrid"  version="0.1"  >
<UnstructuredGrid>
<Piece  NumberOfPoints="4073" NumberOfCells="7430">
<Points>
<DataArray  type="Float64"  NumberOfComponents="3"  format="ascii">-20 2.5 0  -20 0 0  -1 0 0  -0.9996988186962042 0.02454122852291233 0  -0.9987954562051724 0.04906767432741797 0  -0.9972904566786902 0.07356456359966773 0  -0.9951847266721968 0.09801714032956083 0  -0.99247953459871 0.1224106751992163 0  -0.989176509964781 0.1467304744553618 0  -0.9852776423889412 0.1709618887603012 0  -0.9807852804032304 0.1950903220161286 0  -0.9757021300385285 0.21910124015687 0  -0.970031253194544 0.2429801799032641 0  -0.9637760657954398 0.2667127574748985 0  -0.9569403357322088 0.2902846772544624 0  -0.9495281805930367 0.3136817403988914 0  -0.9415440651830207 0.3368898533922203 0  -0.9329927988347388 0.3598950365349883 0  -0.9238795325112867 0.3826834323650899 0  -0.9142097557035307 0.4052413140049899 0  -0.9039892931234433 0.427555093430282 0  -0.8932243011955152 0.4496113296546069 0  -0.8819212643483549 0.4713967368259979 0  -0.8700869911087113 0.4928981922297841 0  -0.857728610000272 0.5141027441932218 0  -0.8448535652497071 0.5349976198870972 0  -0.8314696123025453 0.5555702330196022 0  -0.8175848131515836 0.5758081914178454 0  -0.8032075314806448 0.5956993044924335 0  -0.7883464276266062 0.6152315905806269 0  -0.773010453362737 0.6343932841636455 0  -0.7572088465064846 0.6531728429537766 0  -0.7409511253549589 0.6715589548470186 0  -0.7242470829514668 0.6895405447370671 0  -0.7071067811865475 0.7071067811865476 0  -0.6895405447370669 0.7242470829514669 0  -0.6715589548470184 0.740951125354959 0  -0.6531728429537765 0.7572088465064847 0  -0.6343932841636454 0.7730104533627371 0  -0.6152315905806267 0.7883464276266063 0  -0.5956993044924334 0.8032075314806449 0  -0.5758081914178453 0.8175848131515837 0  -0.555570233019602 0.8314696123025455 0  -0.534997619887097 0.8448535652497072 0  -0.5141027441932217 0.8577286100002721 0  -0.492898192229784 0.8700869911087115 0  -0.4713967368259977 0.881921264348355 0  -0.4496113296546067 0.8932243011955152 0  -0.4275550934302819 0.9039892931234434 0  -0.4052413140049897 0.9142097557035307 0  -0.3826834323650897 0.9238795325112867 0  -0.3598950365349882 0.9329927988347388 0  -0.3368898533922199 0.9415440651830208 0  -0.3136817403988914 0.9495281805930367 0  -0.2902846772544622 0.9569403357322089 0  -0.2667127574748983 0.9637760657954398 0  -0.2429801799032639 0.970031253194544 0  -0.2191012401568697 0.9757021300385286 0  -0.1950903220161282 0.9807852804032304 0  -0.1709618887603012 0.9852776423889412 0  -0.1467304744553616 0.989176509964781 0  -0.1224106751992162 0.99247953459871 0  -0.09801714032956065 0.9951847266721969 0  -0.07356456359966733 0.9972904566786902 0  -0.04906767432741801 0.9987954562051724 0  -0.02454122852291214 0.9996988186962042 0  6.123233995736766e-17 1 0  0.02454122852291226 0.9996988186962042 0  0.04906767432741813 0.9987954562051724 0  0.07356456359966745 0.9972904566786902 0  0.09801714032956077 0.9951847266721968 0  0.1224106751992163 0.99247953459871 0  0.1467304744553617 0.989176509964781 0  0.1709618887603014 0.9852776423889412 0  0.1950903220161283 0.9807852804032304 0  0.2191012401568698 0.9757021300385286 0  0.242980179903264 0.970031253194544 0  0.2667127574748984 0.9637760657954398 0  0.2902846772544623 0.9569403357322089 0  0.3136817403988916 0.9495281805930367 0  0.3368898533922201 0.9415440651830208 0  0.3598950365349883 0.9329927988347388 0  0.3826834323650898 0.9238795325112867 0  0.4052413140049899 0.9142097557035307 0  0.4275550934302822 0.9039892931234433 0  0.4496113296546066 0.8932243011955153 0  0.4713967368259978 0.8819212643483549 0  0.4928981922297841 0.8700869911087113 0  0.5141027441932217 0.8577286100002721 0  0.5349976198870973 0.844853565249707 0  0.5555702330196023 0.8314696123025452 0  0.5758081914178453 0.8175848131515837 0  0.5956993044924335 0.8032075314806448 0  0.6152315905806268 0.7883464276266062 0  0.6343932841636455 0.773010453362737 0  0.6531728429537768 0.7572088465064845 0  0.6715589548470183 0.7409511253549591 0  0.6895405447370669 0.7242470829514669 0  0.7071067811865476 0.7071067811865475 0  0.724247082951467 0.6895405447370668 0  0.7409511253549591 0.6715589548470183 0  0.7572088465064846 0.6531728429537768 0  0.773010453362737 0.6343932841636455 0  0.7883464276266063 0.6152315905806268 0  0.8032075314806449 0.5956993044924334 0  0.8175848131515837 0.5758081914178453 0  0.8314696123025452 0.5555702330196022 0  0.8448535652497071 0.5349976198870972 0  0.8577286100002721 0.5141027441932217 0  0.8700869911087115 0.492898192229784 0  0.881921264348355 0.4713967368259976 0  0.8932243011955153 0.4496113296546065 0  0.9039892931234433 0.4275550934302821 0  0.9142097557035307 0.4052413140049899 0  0.9238795325112867 0.3826834323650898 0  0.932992798834739 0.3598950365349881 0  0.9415440651830208 0.3368898533922201 0  0.9495281805930367 0.3136817403988915 0  0.9569403357322088 0.2902846772544623 0  0.9637760657954398 0.2667127574748984 0  0.970031253194544 0.2429801799032639 0  0.9757021300385286 0.2191012401568698 0  0.9807852804032304 0.1950903220161282 0  0.9852776423889412 0.1709618887603012 0  0.989176509964781 0.1467304744553617 0  0.99247953459871 0.1224106751992162 0  0.9951847266721969 0.0980171403295606 0  0.9972904566786902 0.07356456359966743 0  0.9987954562051724 0.04906767432741801 0  0.9996988186962042 0.02454122852291229 0  1 0 0  20 0 0  20 2.5 0  0 2.5 0  -10 2.5 0  10 2.5 0  -10.5 0 0  -5 2.5 0  10.5 0 0  5 2.5 0  -5.75 0 0  5.75 0 0  -15.25 0 0  -15 2.5 0  15.25 0 0  15 2.5 0  -17.625 0 0  -17.5 2.5 0  17.5 2.5 0  17.625 0 0  12.5 2.5 0  12.875 0 0  -12.5 2.5 0  -12.875 0 0  -2.5 2.5 0  2.5 2.5 0  -8.125 0 0  -7.5 2.5 0  8.125 0 0  7.5 2.5 0  -3.375 0 0  3.375 0 0  -18.75 2.5 0  20 1.25 0  16.4375 1.19375 0  -16.25 2.5 0  13.75 2.5 0  -14.0625 0 0  -11.6875 0 0  11.6875 0 0  8.75 2.5 0  -8.75 2.5 0  6.9375 0 0  6.25 2.5 0  -6.25 2.5 0  -9.3125 0 0  -6.9375 0 0  9.3125 0 0  11.25 2.5 0  -11.25 2.5 0  3.75 2.5 0  4.5625 0 0  -4.5625 0 0  -3.75 2.5 0  -13.75 2.5 0  14.0625 0 0  -16.4375 0 0  -20 1.25 0  -18.8125 0 0  18.75 2.5 0  -18.21875 1.2359375 0  18.125 1.278125 0  -15.84375 1.2125 0  -14.375 1.30859375 0  14.65625 1.203125 0  2.1875 0 0  -2.1875 0 0  13.125 1.315625 0  3.125 1.315625 0  -3.125 1.315625 0  -12.28125 1.1890625 0  -5.15625 1.184375 0  11.09375 1.184375 0  5.625 1.325 0  -10.97262068800044 1.220713793599868 0  9.375 1.32734375 0  -6.875 1.32734375 0  -9.67626828410207 1.24449497187193 0  8.061334925608099 1.312208731402025 0  -8.188665074391901 1.312208731402025 0  -1.25 2.5 0  1.25 2.5 0  4.37465139623265 1.41327350462657 0  16.25 2.5 0  6.84375467392576 1.430449641528851 0  1.846573640185365 1.334702047669377 0  -1.846573640185365 1.334702047669377 0  -17.02955351149946 1.396129584721571 0  16.4375 0 0  18.8125 0 0  -13.31314667860176 1.511193493282891 0  -4.122005747945582 0.961844908681634 0  12.12799425205442 0.961844908681634 0  15.54930641305724 1.660405980876393 0  19.0578783583929 0.9559530595267438 0  8.71875 0.6864560603786576 0  -7.53125 0.6864560603786576 0  0.6257799091428734 1.819008129832855 0  -0.6257799091428727 1.819008129832856 0  6.291331569065717 0.7194652423646902 0  -19.11204717950418 0.9044926794710327 0  -4.488713231834613 1.772186102355655 0  11.76128676816539 1.772186102355655 0  -19.28185607205105 1.781856072051052 0  19.30868080343342 1.808680803433421 0  9.90625 0.6371857066656857 0  -6.34375 0.6371857066656857 0  3.796921710049233 0.7617406159238448 0  7.392020585015773 0.7480839107774819 0  -8.910372062800235 0.7929553447587234 0  10.2506781820361 1.451853913138859 0  -5.999321817963904 1.451853913138859 0  4.957643119381741 0.7716423099297361 0  17.29984375 0.8640625 0  15.41193625859067 0.8279888354083842 0  -13.72251704931534 0.7728002662082776 0  16.875 2.5 0  17.12178336313261 1.690954734835967 0  -11.64001625260176 1.74572103154608 0  2.477726735235857 0.7850262278604345 0  13.46875 0 0  13.765625 0.7802887470308788 0  -2.78125 0 0  -2.477726735235857 0.7850262278604346 0  -10.33383379274331 1.744431431923121 0  13.91957519050334 1.653419259628842 0  -15.08147780274903 0.8341506893754731 0  -15.14066649024666 1.671962869821843 0  -8.950686484882164 1.678622661163363 0  -17.55392917606836 0.794731598412167 0  -16.80247533599675 0.6688259240674158 0  -12.94289066923278 0.7766744225472476 0  -9.90625 0 0  -10.31601468672093 0.7730817089126454 0  -18.21875 0 0  -12.28125 0 0  -17.68515668569534 1.768907656575843 0  18.21875 0 0  10.85059123027421 1.880344717307101 0  -5.399408769725794 1.880344717307101 0  -3.738137326223278 1.749164834446819 0  -3.125 2.5 0  12.46235897590077 1.601301060091387 0  -11.09375 0 0  -11.61661448001209 0.7781698802173554 0  -15.625 2.5 0  1.59375 0 0  -1.764022608759088 0.6027229563180789 0  -8.125 2.5 0  8.125 2.5 0  8.713468311289519 1.727645658498745 0  9.375 2.5 0  -7.536531688710481 1.727645658498745 0  -6.875 2.5 0  14.375 2.5 0  17.78381794101733 1.874391370085592 0  18.59891476281433 1.80649740393129 0  -18.58835555265984 1.824268641341969 0  1.806126122135773 0.6510673837470153 0  -16.875 2.5 0  -16.36681393636619 1.755298393865037 0  -16.13072438662071 0.6014017614895231 0  -13.92460230791385 1.83195710210235 0  -14.40198779087891 0.6105385965811564 0  20 0.625 0  19.40625 0 0  14.6875 1.888836596385542 0  14.65625 0 0  12.78248197181444 0.6991460920542635 0  -3.467518028185561 0.6991460920542635 0  13.125 2.5 0  2.491957142932539 1.738660596534321 0  3.125 2.5 0  1.875 2.5 0  3.718973573227002 1.75927763286174 0  -2.491957142932539 1.738660596534321 0  -1.875 2.5 0  -9.375 2.5 0  6.2001972846108 1.772767401802766 0  5.625 2.5 0  5.027483518098582 1.760895488350309 0  5.625981449127788 0.6566963631252629 0  -12.30101114679273 1.859484693920165 0  9.742489932362783 1.884363450023167 0  -6.507510067637216 1.884363450023166 0  1.13492303295015 1.283502262067074
[...]
<CellData  Scalars="f_17852527"> 
<DataArray  type="Float64"  Name="f_17852527"  format="ascii">8.6214800598321730e-03   1.1664003992796939e-02   5.1377094339715105e-03   5.2614436505546841e-03   1.2574844371953746e-02   1.2309752504289513e-02   1.7952311872234946e-02   2.5016235203984334e-02   6.0261492095336835e-03   1.0360043267772356e-02   7.3559013998637252e-03   1.1480971593280907e-02   9.9933321740172856e-03   8.0846836869878872e-03   6.7053337229011911e-03   7.9354801071191555e-03   1.0501515672966919e-02   9.9005059219206982e-03   2.7407621361257312e-02   3.0544450766701096e-02   7.9745169824602981e-03   5.2132065769827304e-03   6.6917095774309578e-03   7.0208728284451216e-03   3.6584792926338972e-03   3.9434285381249930e-03   5.5108707137407889e-03   6.3869449825958696e-03   1.3820340918923466e-02   1.1416217467041823e-02   1.1097118400989455e-02   8.5697150322970352e-03   1.0723435296915280e-02   1.1722252464433727e-02   1.4752172350514389e-02   1.2149798276890958e-02   6.6660754462639507e-03   8.6493169744394551e-03   1.1947955592301768e-02   1.2934823384774178e-02   8.4655953982646047e-03   8.6850901338677792e-03   6.5849396657174410e-03   7.8194848495127030e-03   1.5752677610157577e-02   1.4605977013809165e-02   8.2742565946681799e-03   7.2564918706487730e-03   1.2927056613687085e-02   8.4677207698454458e-03   1.0917854721526647e-02   8.0433803222118277e-03   9.4786839599294154e-03   6.7976346438859249e-03   9.7040460668472352e-03   9.7642814854430049e-03   3.8608630630510995e-03   3.1673078400949292e-03   4.3774822087985108e-03   3.4767716078543559e-03   7.1922589602337753e-03   6.9882654018341012e-03   6.3324782988956720e-03   8.5699102009053878e-03   5.3898773610771391e-03   7.6641653389754628e-03   4.4325594882244270e-03   3.4459746148679370e-03   7.9029111099363451e-03   4.9900494040366382e-03   6.0691313215741572e-03   7.3894342793274581e-03   3.5504419474851469e-03   5.9686049660476886e-03   7.7736714440819824e-03   8.5395938242985182e-03   4.3834001681474898e-03   5.5568219358555692e-03   4.3131653439511183e-03   4.8045803602479549e-03   3.9428033892646855e-03   4.4039907273086491e-03   7.1095698279995392e-03   4.1720002470297165e-03   4.9209548425087355e-03   7.7976355101734406e-03   5.6000873895282457e-03   4.4759903175561914e-03   5.5318541228418228e-03   6.7899302185710541e-03   3.9650565066521558e-03   5.2186755885604216e-03   5.6601169796568771e-03   3.0630961390963724e-03   6.8248545429534027e-03   6.7524470544673048e-03   7.1664391183365690e-03   4.4767495929420508e-03   3.0764276575138390e-03   2.6133084829042096e-03   3.9199332354282173e-03   5.5346825250155761e-03   6.6391769243070650e-03   4.0400837520738805e-03   1.4014814996967924e-02   1.3874183308714235e-02   1.2357568225139377e-02   1.1699876024342885e-02   1.0908232555205082e-02   9.5278535682303319e-03   7.9859351339083423e-03   3.8257278545726042e-03   8.1960954996027086e-03   6.6861903129363668e-03   5.4389126323048653e-03   5.6632504399779108e-03   6.6244701913292705e-03   7.0361601489748763e-03   6.2807787113174163e-03   3.9244108872636121e-03   6.0559849745135249e-03   2.1369503530028477e-02   9.8925918478944743e-03   9.6978046278471709e-03   5.1236508569993703e-03   7.1183232009058035e-03   7.7599293984532925e-03   9.3523550744066038e-03   4.8752351125712573e-03   6.3332747139940209e-03   2.8468572315080653e-03   6.0141192517365293e-03   6.8078900045008411e-03   6.9413019217697417e-03   7.7552643491509881e-03   6.5721875866451111e-03   4.7189724802531594e-03   4.7013957285921551e-03   6.7407287868847610e-03   7.8115367444579614e-03   8.8369252129275409e-03   7.3036296685405266e-03   6.5603558762609409e-03   8.3180689821248221e-03   1.1283385247601465e-02   7.8629803301422992e-03   1.1607092685427775e-02   9.7446388120361032e-03   1.3235933119564261e-02   1.1288238944581443e-02   1.4783778140615119e-02   1.6354289032801405e-02   5.8735560238721450e-03   8.3708600574673858e-03   1.1878361133872334e-02   2.5124157480360197e-02   8.9875420769902625e-03   7.7676632911843034e-03   7.3241019536192473e-03   8.3186331335852130e-03   7.8488643622501124e-03   6.5838288539548278e-03   1.0396382081942813e-02   5.5261173377945732e-03   8.3011069629604223e-03   7.8191251395660355e-03   5.9445004305507402e-03   5.2968587116844473e-03   6.9670081931143607e-03   8.3525180299654934e-03   1.6899656149802659e-02   1.3254909484727007e-02   1.4533126853466730e-02   1.2058115989032628e-02   1.7601739564671235e-02   1.9110055261607722e-02   9.9824271248628114e-03   1.3387452177834732e-02   8.8971956587716693e-03   1.0019010440104470e-02   6.1079062731586916e-03   7.2568323282241349e-03   7.4638725529443490e-03   6.4766625248287996e-03   6.7599008707466945e-03   6.3442647525587858e-03   7.0875722969025185e-03   8.3690043722892907e-03   1.2191674715227393e-02   1.8361620656737975e-02   1.7486413141853563e-02   1.9552860485530899e-02   1.0759141871623546e-02   1.0172994929734280e-02   1.2341136655811458e-02   5.3259178862769090e-03   6.4237593934886213e-03   4.7325113866229620e-03   7.1575287684906772e-03   4.7770919745386744e-03   6.0806863379026313e-03   4.7180593083672668e-03   4.2513221831862241e-03   6.8977525223099219e-03   7.2434844950620692e-03   7.2407052087933481e-03   8.5125646801453361e-03   7.6618786414332672e-03   6.5762752787929526e-03   4.3893934710488372e-03   2.5229782174274020e-03   3.5194156089522633e-03   9.3958190809646982e-03   7.5473266996861728e-03   8.3951850091350793e-03   8.8382195727888888e-03   7.8869265618509120e-03   9.1964149942234761e-03   1.0850104450350269e-02   7.2140504385575059e-03   1.3486793314550737e-02   1.2875573658889144e-02   1.0704023100363296e-02   1.1347699430528222e-02   1.1091614935224668e-02   1.1885470921737558e-02   2.5414177135006898e-02   2.3942349341215894e-02   1.2384212917418909e-02   1.2024472380594373e-02   9.5005261305544653e-03   1.1503993136077235e-02   7.2981535694598299e-03   1.2000810330203549e-02   1.0415882532145251e-02   1.0749025502704361e-02   7.8730250659912130e-03   4.1686862971729889e-03   3.1975574295280236e-03   4.0508664135144581e-03   6.2716142123463020e-03   4.4572629109877939e-03   5.7829056487496153e-03   8.8230690836941152e-03   7.2157796108208863e-03   6.2896366513885311e-03   6.5602554686000581e-03   6.6093793934525035e-03   4.9722670753221026e-03   2.7335165094030476e-03   7.2993050715739289e-03   4.3777810854399336e-03   5.3965293719305200e-03   7.8913641973808266e-03   4.6483326668802713e-03   5.6231336983731672e-03   6.2529427876369626e-03   7.2700841662630281e-03   6.0916244378850229e-03   7.0540912685569711e-03   6.1580482016755488e-03   7.5083010513446163e-03   6.2601461045502516e-03   6.1294386158710461e-03   4.4435817003293018e-03   4.0431391415575134e-03   3.9714631805360051e-03   3.5963305712455444e-03   4.0000965136125690e-03   4.9023058847155309e-03   4.8836648436348610e-03   3.9010669591833741e-03   7.6646301113974004e-03   5.0202199217598336e-03   7.6374486461648810e-03   1.0268176516511397e-02   1.0247770322077666e-02   8.5305481457849247e-03   1.1286869242388172e-02   1.7791153920465687e-02   6.5311421374642711e-03   5.1961877432389674e-03   7.3567948998706180e-03   4.6816677761165014e-03   4.3244798134008076e-03   3.0246082878746527e-03   4.1738283592289522e-03   1.2656122217558559e-02   8.1790347406307685e-03   7.0080877387948591e-03   7.6912057093394956e-03   6.1913796937567373e-03   7.9776231187714836e-03   5.3049661195153901e-03   9.1848277627779272e-03   5.5804595545708505e-03   3.6929159499476303e-03   4.7837012892839410e-03   6.9943957562246918e-03   8.3158029481090086e-03   8.4306418163652610e-03   1.1418776239177917e-02   6.2756922310860212e-03   5.8924680873145199e-03   9.2995622592752132e-03   8.3525256985375589e-03   5.0126880939462088e-03   7.4706039697904651e-03   3.0706709193930666e-03   3.5158407215883942e-03   8.4984722140110033e-03   6.0721932496032799e-03   1.0212426952363548e-02   9.6785876703648459e-03   9.7551446352961146e-03   7.3643151099122874e-03   1.3071978662008191e-02   1.2417525314698275e-02   1.0095573984930658e-02   1.2529841025191066e-02   1.1606380515680931e-02   1.0869903019919018e-02   1.4087921397871666e-02   1.2542272527422498e-02   4.4219285739473873e-03   8.4531945561631735e-03   5.6434610573181066e-03   6.8970361652125802e-03   9.6105738560409368e-03   8.6979371261455447e-03   9.5786299573621583e-03   1.2716119215562550e-02   3.5476447877372118e-03   2.9802368389171725e-03   2.5733566546106939e-03   2.4502558341575578e-03   9.7477347960391574e-03   1.1526063639731941e-02   9.7156929067141080e-03   8.0980047731742250e-03   7.5800853251110113e-03   8.7692354338762477e-03   7.7125826351977832e-03   6.2508524685708370e-03   6.4941135410264130e-03   6.5597292068840770e-03   8.7203017461678772e-03   7.2779763786110542e-03   8.3584270961030334e-03   1.0163072910761267e-02   8.3238583425509823e-03   1.1854603123754371e-02   6.9461283054294476e-03   7.3120043551848429e-03   8.2053470889848108e-03   1.2473875809652545e-02   4.6671564163065010e-03   6.2400569988615325e-03   5.7775859662467788e-03   4.3697807303736810e-03   5.3004220729154601e-03   6.3815330891389722e-03   8.8235424852614128e-03   6.3686107866033686e-03   7.2120288199537513e-03   7.8139744927321030e-03   7.5286621505124473e-03   7.9728461868532920e-03   1.5354553657276648e-02   1.4179423327220416e-02   1.0676973979371030e-02   9.5610019849232761e-03   5.9813373657155045e-03   3.1884676251057766e-03   3.7212461418660004e-03   4.6663896863710025e-03   1.0832395865288403e-02   8.3724915768742803e-03   8.9445441571995282e-03   1.0031994784540931e-02   1.4462249336587008e-02   1.4832191567482781e-02   2.3227742980909148e-02   1.4971598258316539e-02   6.2843989323883272e-03   9.4199567013988419e-03   6.7017650626310047e-03   4.3670639181422766e-03   6.1393315821644022e-03   4.5850326582211314e-03   7.8334969310673679e-03   6.0621266632214588e-03   1.2742585617304661e-02   1.0022200810300072e-02   1.2847668441608380e-02   1.2402681440687643e-02   6.7443806526627974e-03   7.6164344289178726e-03   7.1854326818316964e-03   5.2611843530237382e-03   1.0570244651489168e-02   1.1894906358530039e-02   1.1966917168960560e-02   1.1060010004599267e-02   6.1831423218996658e-03   5.6434849175463339e-03   6.3756689107586795e-03   6.4025925273902612e-03   6.5037717266182831e-03   7.2145220062306854e-03   8.0683348057366908e-03   7.8148342510305936e-03   7.4712849104242706e-03   1.6858830151344827e-02   9.5449755261632942e-03   1.2161505465534650e-02   9.0511650259980560e-03   1.0196682431650268e-02   9.2184565046340549e-03   1.1359266817125365e-02   6.3505051109303242e-03   8.5119114435435860e-03   1.0344311441391679e-02   9.2585657389221507e-03   6.5758962081205212e-03   7.0876976141325812e-03   7.2164434764079854e-03   6.3770657715546261e-03   1.1700715711236409e-02   9.8832697666674171e-03   5.8154200295313634e-03   1.0252698221373088e-02   8.2601251342008138e-03   1.0545208674069015e-02   6.9190223577364285e-03   8.1281123164109650e-03   7.2176700737953152e-03   5.9886348366356128e-03   8.3437833389735441e-03   4.5557202364319115e-03   1.0222734269553177e-02   9.2832521206031703e-03   6.7197810337073201e-03   1.2302085571618760e-02   8.3270084697487819e-03   1.0331090161773667e-02   1.3152687257196176e-02   1.0166970094461462e-02   8.0171793225902368e-03   1.1461830612419184e-02   1.2889440080564479e-02   1.3550283449603337e-02   3.0552893610938650e-03   4.8999922814820518e-03   4.9718389239857006e-03   3.8257010321537097e-03   1.0481496445815329e-02   1.0944002969770895e-02   1.1449313483029470e-02   1.0341788653291877e-02   9.7924928843680838e-03   6.2461492285768080e-03   9.2302149604866664e-03   9.0111256741347689e-03   5.4625081808438803e-03   1.2542576741598057e-02   8.5700928909201151e-03   1.0296481782722198e-02   9.4257647980239348e-03   9.8159047256388444e-03   8.4835266200996920e-03   1.0335946582780966e-02   1.2925657739626365e-02   6.2110696943796445e-03   4.7375006921315677e-03   5.2739871483527606e-03   5.2622119718996677e-03   5.1717715042246338e-03   5.2725720270968383e-03   5.9610090597481419e-03   1.0491595538129748e-02   8.3008632123987083e-03   4.5250463714630110e-03   3.1734112648309537e-03   5.7047343708889519e-03   5.2733995833739037e-03   5.9846299304094838e-03   5.3498184875811119e-03   7.1307317906293714e-03   1.2187250816378708e-02   8.5709054040038792e-03   1.1078224793312691e-02   1.2088481183924046e-02   9.3435749607437644e-03   9.5207313508639101e-03   7.5985233143438038e-03   3.0663577924660720e-03   3.5277522713479891e-03   4.5596734302367917e-03   4.9045359753531973e-03   3.3439773204269620e-03   1.9433976891648629e-03   5.5519997062145670e-03   4.5045848462665367e-03   6.4922620562698494e-03   4.2617737604569786e-03   5.0367146090844915e-03   3.0113585706785318e-03   4.2721417371981473e-03   2.7943345981647463e-03   3.0729540120668559e-03   2.5282113404178812e-03   3.7054888875930943e-03   4.5914552498785288e-03   5.1001328691165828e-03   7.7892319311680799e-03   5.4965480917819071e-03   3.9879578575405623e-03   4.7150549182692833e-03   5.2549921652303225e-03   8.5122491755029086e-03   3.6911520092014266e-03   6.7880367997484262e-03   9.8198735179239049e-03   8.8224224740998825e-03   9.6922912507473053e-03   4.5959611546757982e-03   4.8633903342490716e-03   4.3867102562909748e-03   2.5603944752367216e-03   2.5917565019123868e-03   4.6925625517986258e-03   5.8000206738994444e-03   3.8838625074436683e-03   3.3178095190945743e-03   7.8911311285823713e-03   6.3435926967143766e-03   6.2311473778123069e-03   5.8273308343635699e-03   4.7553742839023978e-03   5.7190141599730068e-03   8.7684527659837638e-03   4.8474839870002720e-03   5.3154616184342470e-03   4.8061525721619066e-03   5.0320649497608916e-03   2.2530380147724556e-03   6.6360897813571946e-03   6.9308389846357028e-03   6.1100429108473528e-03   1.0437450013521088e-02   7.0335300367187327e-03   4.6381759802598546e-03   5.4901457102345145e-03   4.4135490694150476e-03   3.7008642966818647e-03   3.5966677066636941e-03   5.9243186517902221e-03   4.3064339922356271e-03   6.4593003693059594e-03   3.1520829260801085e-03   3.9973585290927066e-03   5.2374944056740409e-03   3.5664510212066076e-03   4.9213300349476470e-03   5.5270200488104874e-03   1.5991545073750519e-03   2.1392269602542513e-03   4.1267639990372014e-03   2.5381830093514175e-03   8.4468995811364730e-03   6.5755540128920086e-03   6.2845276891352149e-03   4.0300005211283225e-03   4.9429470575689596e-03   1.7411793651646770e-03   5.5874987883562672e-03   5.4694100414283461e-03   4.0254658924642308e-03   4.1343339993811928e-03   7.6381641407393935e-03   8.0777533315490417e-03   5.2088856913436567e-03   5.8650884721427980e-03   2.3249015284347928e-03   4.7067990599261936e-03   1.0868750686097200e-02   9.5588995483649030e-03   1.2060314666133786e-02   1.1990206620105477e-02   6.3558386741824451e-03   1.1703485931999612e-02   9.7633419148922939e-03   7.5426971835476572e-03   7.7248509046495967e-03   5.5550754875981429e-03   7.7916608291576338e-03   8.5278074709232796e-03   2.1193768006555758e-02   1.4401290990367676e-02   1.7678356215616219e-02   1.3480094511300365e-02   4.3708258437142036e-03   7.3978180774935832e-03   7.0669077419652851e-03   6.6214318085565200e-03   6.2468372285305902e-03   7.3095179840186692e-03   4.3803246892579091e-03   4.7604405022783625e-03   4.8292485697632743e-03   3.8781413681494032e-03   4.5375731368740334e-03   6.8772485107140447e-03   9.4015444215089245e-03   6.7184455372232598e-03   8.3067652161397301e-03   3.1829304144687862e-03   8.5938134889928172e-03   5.5138107050144687e-03   5.6284166582700884e-03   3.3159468082519222e-03   2.9855216819606734e-03   1.5303718156533105e-03   7.4190796856541544e-03   3.9484893960312342e-03   6.1158852475789822e-03   5.4861298398830634e-03   5.6649072388418832e-03   3.1690059584741602e-03   3.8293853469942530e-03   5.3047977098799933e-03   7.5528469270149503e-03   2.6975385141415117e-03   4.1247365455633761e-03   4.2003283160643645e-03   3.9522909191985305e-03   5.8514601051998325e-03   4.9105890664300975e-03   8.3637999824692274e-03   4.4055092933392385e-03   4.8694110642152049e-03   5.7091118973031088e-03   4.8357574705218398e-03   7.4463752574603385e-03   7.2531908793073713e-03   3.5885011409672522e-03   3.7260738830443610e-03   3.5006754067322095e-03   3.9522957853847934e-03   3.6322187938543234e-03   5.5217506933976906e-03   5.8242507681612148e-03   1.2660638119945028e-02   9.3283761753942332e-03   5.0302828024772093e-03   5.7476874320967625e-03   4.1381972930556142e-03   5.8046096639515809e-03   1.0354392016325587e-02   1.0204233667802494e-02   5.6374670855341641e-03   4.5058992349224104e-03   6.9027684945280115e-03   7.0701959027061126e-03   8.7222656243061449e-03   9.7616640588426336e-03   1.2227543263359859e-02   9.7936455929500902e-03   1.0497135896697655e-02   1.2344581742897398e-02   3.0963513904786518e-03   5.3873158291208607e-03   4.9361485080200050e-03   6.7817548527937610e-03   5.4652610064799137e-03   2.6097827902365721e-03   2.7894538664437066e-03   3.4951383525593611e-03   2.5205792894689837e-03   4.4534113658345892e-03   5.9419840184329930e-03   4.4430768202909973e-03   3.4783331580742838e-03   5.0066769749706596e-03   2.7949057417281050e-03   2.8086647755543571e-03   7.6485785234142274e-03   4.1407484652090324e-03   6.8969110161299701e-03   5.4225776284777642e-03   3.2943846402032377e-03   3.8121532131012346e-03   2.7251020321915277e-03   5.0275603967398887e-03   5.3122321079888939e-03   5.9523462648751026e-03   7.1986146044699852e-03   4.0077363013278754e-03   5.1045618023747913e-03   7.6307993216659176e-03   1.0740072673815488e-02   5.2966104231846793e-03   8.5957023561380741e-03   4.7075911923237469e-03   4.9870034148966598e-03   1.0888158916066227e-02   1.0837368407032897e-02   3.2372551840107364e-03   4.2445529969804075e-03   4.4138311920855133e-03   3.1080871219555145e-03   5.4302366951220343e-03   5.4554493374385452e-03   5.7224198068951005e-03   4.9149948634168751e-03   6.1922492390860100e-03   4.0300317596724351e-03   5.2327023896847286e-03   6.7314194434986516e-03   6.0621333922813228e-03   7.3780293279475575e-03   4.0160490808476357e-03   5.1453235288505010e-03   3.5117693664796566e-03   3.9117419045010251e-03   3.6489111590200830e-03   2.7541409929460049e-03   2.8903200370803388e-03   4.9753066063947691e-03   6.2318501847735512e-03   3.5769805816587628e-03   5.1484356883404548e-03   4.0654481903689187e-03   5.4657689250852759e-03   5.0273846607741500e-03   7.6036542818017890e-03   5.3049555836671139e-03   5.0154414600002946e-03   6.9315205039698598e-03   6.4915468024963939e-03   2.4682491166634025e-03   8.8224169740483190e-03   4.1362023571096251e-03   4.8936325399234299e-03   1.4847346777565951e-03   4.2630860725161772e-03   2.5621544821733538e-03   4.8994030096073974e-03   3.9464148552357543e-03   7.4493527572858913e-03   3.6807840191170373e-03   6.6156732077952956e-03   4.6207324490911729e-03   4.4137664529988333e-03   6.3958404102021325e-03   4.5826993089617702e-03   3.9609583759215054e-03   5.3445707335734631e-03   4.2861420027266667e-03   6.3562107913175871e-03   1.2111489274051297e-02   9.0438646801788078e-03   6.6099883575501299e-03   3.4128621196463215e-03   2.5690884060417763e-03   3.9959786870748006e-03   4.4219485741420267e-03   6.2008565607176123e-03   3.4175847761323693e-03   3.8009950306330115e-03   3.3574191882480807e-03   4.4103665312730739e-03   4.6891801397238465e-03   9.2893572430340285e-03   6.9031314505857274e-03   5.2237425209750374e-03   4.8770536149901162e-03   7.3653411663124274e-03   9.6744164631862480e-03   7.0751941695610969e-03   6.6984987129124528e-03   4.9164020164503405e-03   2.4816521337265823e-03   4.2432119340458626e-03   2.8640943852297116e-03   3.1891117366799537e-03   1.0261385615225179e-02   4.3115485782942130e-03   9.2693599390652245e-03   1.0964883078324023e-02   3.6151366341049501e-03   4.0443493900800239e-03   5.5549779355688490e-03   5.0419373533358283e-03   2.2470352769205231e-03   3.93