<?xml version="1.0"?>
<VTKFile type="UnstructuredGrid"  version="0.1"  >
<UnstructuredGrid>
<Piece  NumberOfPoints="2525" NumberOfCells="4203">
<Points>
<DataArray  type="Float64"  NumberOfComponents="3"  format="ascii">1.25 0 0  1.249623523370255 0.03067653565364036 0  1.248494320256466 0.06133459290927252 0  1.246613070848363 0.09195570449958429 0  1.243980908340246 0.1225214254119508 0  1.240599418248387 0.1530133439990203 0  1.236470637455976 0.1834130930692022 0  1.231597052986177 0.2137023609503765 0  1.225981600504038 0.2438629025201603 0  1.219627662548161 0.2738765501960873 0  1.21253906649318 0.3037252248790798 0  1.2047200822443 0.333390946843623 0  1.196175419665261 0.3628558465680779 0  1.186910225741296 0.3921021754986144 0  1.176930081478776 0.4211123167402751 0  1.166240998543424 0.4498687956687352 0  1.154849415639108 0.4783542904563622 0  1.142762194629413 0.5065516425062373 0  1.129986616404304 0.5344438667878526 0  1.116530376494394 0.5620141620682582 0  1.102401580435444 0.5892459210324971 0  1.087608738885889 0.61612274028723 0  1.07216076250034 0.642628430241527 0  1.056066956562134 0.6687470248588714 0  1.039337015378182 0.6944627912745027 0  1.02198101643948 0.7197602392723067 0  1.004009414350806 0.7446241306155417 0  0.9854330345332579 0.7690394882257835 0  0.9662630667034212 0.7929916052045569 0  0.9465110581331058 0.8164660536922209 0  0.9261889066936989 0.8394486935587729 0  0.9053088536893338 0.8619256809213336 0  0.8838834764831844 0.8838834764831843 0  0.8619256809213337 0.9053088536893337 0  0.8394486935587729 0.9261889066936989 0  0.8164660536922209 0.9465110581331055 0  0.7929916052045569 0.9662630667034212 0  0.7690394882257835 0.9854330345332578 0  0.7446241306155419 1.004009414350806 0  0.7197602392723067 1.02198101643948 0  0.6944627912745028 1.039337015378182 0  0.6687470248588716 1.056066956562134 0  0.642628430241527 1.07216076250034 0  0.6161227402872301 1.087608738885889 0  0.5892459210324973 1.102401580435444 0  0.5620141620682583 1.116530376494394 0  0.5344438667878527 1.129986616404304 0  0.5065516425062373 1.142762194629413 0  0.4783542904563623 1.154849415639108 0  0.4498687956687353 1.166240998543424 0  0.4211123167402751 1.176930081478776 0  0.3921021754986145 1.186910225741296 0  0.3628558465680779 1.196175419665261 0  0.333390946843623 1.2047200822443 0  0.30372522487908 1.21253906649318 0  0.2738765501960872 1.219627662548161 0  0.2438629025201604 1.225981600504038 0  0.2137023609503767 1.231597052986177 0  0.1834130930692022 1.236470637455976 0  0.1530133439990203 1.240599418248387 0  0.122521425411951 1.243980908340246 0  0.09195570449958432 1.246613070848363 0  0.06133459290927266 1.248494320256466 0  0.03067653565364033 1.249623523370255 0  7.654042494670958e-17 1.25 0  -0.03067653565364018 1.249623523370255 0  -0.06133459290927251 1.248494320256466 0  -0.09195570449958416 1.246613070848363 0  -0.1225214254119508 1.243980908340246 0  -0.1530133439990202 1.240599418248387 0  -0.1834130930692021 1.236470637455976 0  -0.2137023609503766 1.231597052986177 0  -0.2438629025201602 1.225981600504038 0  -0.2738765501960871 1.219627662548161 0  -0.3037252248790798 1.21253906649318 0  -0.3333909468436229 1.2047200822443 0  -0.3628558465680777 1.196175419665261 0  -0.3921021754986143 1.186910225741296 0  -0.4211123167402749 1.176930081478776 0  -0.4498687956687352 1.166240998543424 0  -0.4783542904563621 1.154849415639108 0  -0.5065516425062372 1.142762194629413 0  -0.5344438667878524 1.129986616404304 0  -0.5620141620682584 1.116530376494394 0  -0.5892459210324972 1.102401580435444 0  -0.61612274028723 1.087608738885889 0  -0.642628430241527 1.07216076250034 0  -0.6687470248588713 1.056066956562134 0  -0.6944627912745025 1.039337015378182 0  -0.7197602392723067 1.02198101643948 0  -0.7446241306155417 1.004009414350806 0  -0.7690394882257834 0.9854330345332579 0  -0.7929916052045567 0.9662630667034213 0  -0.8164660536922207 0.9465110581331059 0  -0.8394486935587731 0.9261889066936988 0  -0.8619256809213337 0.9053088536893337 0  -0.8838834764831843 0.8838834764831844 0  -0.9053088536893334 0.8619256809213338 0  -0.9261889066936986 0.8394486935587732 0  -0.9465110581331058 0.8164660536922208 0  -0.9662630667034212 0.7929916052045569 0  -0.9854330345332578 0.7690394882257836 0  -1.004009414350806 0.7446241306155419 0  -1.02198101643948 0.7197602392723068 0  -1.039337015378182 0.6944627912745027 0  -1.056066956562134 0.6687470248588714 0  -1.07216076250034 0.6426284302415273 0  -1.087608738885889 0.6161227402872302 0  -1.102401580435444 0.5892459210324973 0  -1.116530376494394 0.5620141620682586 0  -1.129986616404304 0.5344438667878525 0  -1.142762194629413 0.5065516425062374 0  -1.154849415639108 0.4783542904563624 0  -1.166240998543424 0.4498687956687354 0  -1.176930081478776 0.4211123167402754 0  -1.186910225741296 0.3921021754986143 0  -1.196175419665261 0.362855846568078 0  -1.2047200822443 0.3333909468436231 0  -1.21253906649318 0.3037252248790801 0  -1.219627662548161 0.2738765501960876 0  -1.225981600504038 0.2438629025201608 0  -1.231597052986177 0.2137023609503765 0  -1.236470637455976 0.1834130930692023 0  -1.240599418248387 0.1530133439990204 0  -1.243980908340246 0.122521425411951 0  -1.246613070848363 0.09195570449958466 0  -1.248494320256466 0.06133459290927246 0  -1.249623523370255 0.03067653565364041 0  -1.25 1.530808498934192e-16 0  -1.249623523370255 -0.0306765356536401 0  -1.248494320256466 -0.06133459290927215 0  -1.246613070848363 -0.09195570449958437 0  -1.243980908340246 -0.1225214254119507 0  -1.240599418248387 -0.1530133439990201 0  -1.236470637455976 -0.183413093069202 0  -1.231597052986177 -0.2137023609503762 0  -1.225981600504038 -0.2438629025201605 0  -1.219627662548161 -0.2738765501960873 0  -1.21253906649318 -0.3037252248790798 0  -1.2047200822443 -0.3333909468436228 0  -1.196175419665261 -0.3628558465680776 0  -1.186910225741296 -0.392102175498614 0  -1.176930081478776 -0.4211123167402752 0  -1.166240998543424 -0.4498687956687352 0  -1.154849415639108 -0.4783542904563621 0  -1.142762194629413 -0.5065516425062371 0  -1.129986616404304 -0.5344438667878523 0  -1.116530376494394 -0.5620141620682583 0  -1.102401580435444 -0.5892459210324971 0  -1.087608738885889 -0.6161227402872299 0  -1.07216076250034 -0.6426284302415269 0  -1.056066956562134 -0.6687470248588712 0  -1.039337015378182 -0.6944627912745025 0  -1.02198101643948 -0.7197602392723067 0  -1.004009414350806 -0.7446241306155416 0  -0.9854330345332579 -0.7690394882257834 0  -0.9662630667034213 -0.7929916052045566 0  -0.946511058133106 -0.8164660536922207 0  -0.9261889066936989 -0.8394486935587731 0  -0.9053088536893338 -0.8619256809213336 0  -0.8838834764831847 -0.8838834764831843 0  -0.8619256809213338 -0.9053088536893334 0  -0.8394486935587733 -0.9261889066936986 0  -0.8164660536922214 -0.9465110581331053 0  -0.7929916052045574 -0.9662630667034209 0  -0.7690394882257841 -0.9854330345332574 0  -0.7446241306155414 -1.004009414350806 0  -0.7197602392723066 -1.02198101643948 0  -0.6944627912745027 -1.039337015378182 0  -0.6687470248588716 -1.056066956562134 0  -0.6426284302415273 -1.07216076250034 0  -0.6161227402872302 -1.087608738885889 0  -0.5892459210324973 -1.102401580435444 0  -0.5620141620682586 -1.116530376494394 0  -0.5344438667878531 -1.129986616404304 0  -0.506551642506238 -1.142762194629413 0  -0.4783542904563629 -1.154849415639108 0  -0.4498687956687349 -1.166240998543424 0  -0.4211123167402749 -1.176930081478776 0  -0.3921021754986143 -1.186910225741296 0  -0.3628558465680781 -1.196175419665261 0  -0.3333909468436231 -1.2047200822443 0  -0.3037252248790802 -1.21253906649318 0  -0.2738765501960876 -1.219627662548161 0  -0.2438629025201608 -1.225981600504038 0  -0.2137023609503771 -1.231597052986176 0  -0.1834130930692029 -1.236470637455976 0  -0.1530133439990199 -1.240599418248387 0  -0.1225214254119506 -1.243980908340246 0  -0.09195570449958419 -1.246613070848363 0  -0.06133459290927254 -1.248494320256466 0  -0.03067653565364049 -1.249623523370255 0  -2.296212748401287e-16 -1.25 0  0.03067653565364003 -1.249623523370255 0  0.06133459290927207 -1.248494320256466 0  0.09195570449958373 -1.246613070848363 0  0.1225214254119501 -1.243980908340246 0  0.1530133439990195 -1.240599418248387 0  0.1834130930692024 -1.236470637455976 0  0.2137023609503766 -1.231597052986177 0  0.2438629025201604 -1.225981600504038 0  0.2738765501960872 -1.219627662548161 0  0.3037252248790797 -1.21253906649318 0  0.3333909468436227 -1.2047200822443 0  0.3628558465680776 -1.196175419665261 0  0.3921021754986139 -1.186910225741296 0  0.4211123167402745 -1.176930081478776 0  0.4498687956687345 -1.166240998543424 0  0.4783542904563625 -1.154849415639108 0  0.5065516425062375 -1.142762194629413 0  0.5344438667878527 -1.129986616404304 0  0.5620141620682583 -1.116530376494394 0  0.589245921032497 -1.102401580435444 0  0.6161227402872298 -1.087608738885889 0  0.6426284302415269 -1.07216076250034 0  0.6687470248588712 -1.056066956562134 0  0.6944627912745023 -1.039337015378182 0  0.7197602392723061 -1.02198101643948 0  0.7446241306155411 -1.004009414350806 0  0.7690394882257838 -0.9854330345332576 0  0.792991605204557 -0.9662630667034211 0  0.8164660536922209 -0.9465110581331058 0  0.8394486935587729 -0.9261889066936989 0  0.8619256809213336 -0.9053088536893338 0  0.8838834764831842 -0.8838834764831847 0  0.9053088536893333 -0.8619256809213339 0  0.9261889066936986 -0.8394486935587733 0  0.9465110581331053 -0.8164660536922214 0  0.9662630667034209 -0.7929916052045574 0  0.9854330345332574 -0.7690394882257843 0  1.004009414350806 -0.7446241306155416 0  1.02198101643948 -0.7197602392723066 0  1.039337015378182 -0.6944627912745027 0  1.056066956562134 -0.6687470248588716 0  1.07216076250034 -0.6426284302415274 0  1.087608738885889 -0.6161227402872304 0  1.102401580435443 -0.5892459210324974 0  1.116530376494394 -0.5620141620682587 0  1.129986616404304 -0.5344438667878532 0  1.142762194629413 -0.50655164250623
[...]
<PointData  Scalars="f_2005"> 
<DataArray  type="Float64"  Name="f_2005"  format="ascii">7.5393198303219196e-15  3.0009146819804369e-15  -3.6472197811886919e-14  1.1283933175883869e-14  -1.2636436952004360e-14  1.8967546208044895e-14  5.7580620438480990e-15  6.6358922968285380e-15  1.0990435161824670e-14  4.5845665828598283e-14  8.2529249259409985e-14  4.6815662564999322e-14  1.2416962396932440e-13  1.2481268635101269e-13  2.9004518358333355e-14  8.1326758905488685e-14  1.3026053597103072e-14  4.4004720426251586e-15  4.4840247805769939e-15  -4.6758728523763153e-14  -8.7108818541201450e-14  5.6500233943652588e-14  2.0334125000244856e-13  6.6873036391958307e-14  4.4806422059789675e-14  4.5514360719084931e-14  5.5017693981586984e-14  2.0426228809154790e-13  -5.0973204234655910e-13  2.2322120845871912e-13  -1.0437906730185924e-12  2.8008730965505924e-12  1.8214643220166316e-12  3.6923882336561910e-12  -3.2091587373531675e-12  -4.6840964439289788e-12  1.5340209809118315e-12  2.1904673403211166e-12  1.1891148330425664e-12  2.1699328636469649e-12  -5.0790242061022244e-13  -1.3783016334798296e-11  -7.4897869193921052e-12  -1.4579424513874113e-11  1.2659657563809671e-11  1.5543794950008450e-11  -1.1479701529370259e-11  -6.2873776062043942e-12  2.6485819509748379e-12  2.3197980008422108e-12  2.3694131337180380e-12  4.2060863726948692e-12  -2.1309600605222363e-12  -4.0654622174920600e-12  -3.5569488790432353e-12  2.5265329696742169e-14  -1.0254521072792195e-11  2.3577180251690318e-11  4.4365984138550322e-11  6.1929078568458454e-12  3.3325837928146905e-12  -2.3523239935775141e-11  -9.4602312425807617e-12  1.4248998060628159e-11  -2.6312920106588043e-12  1.4030182799941346e-11  -1.5021486768205448e-11  -2.2324814698425210e-11  -1.7688151139775653e-11  5.1138395589361096e-11  -2.3802273251215477e-11  1.4101578145041676e-10  2.0289596059400626e-11  3.5201821493643122e-10  2.3617612383291072e-10  2.6278855266464518e-10  6.5156548758167986e-11  7.6939931482380836e-10  1.9998761282609844e-10  2.3169737852721365e-09  3.7307998754235991e-09  1.2955936337240140e-09  1.5529399904067983e-09  -2.1099415425068044e-09  3.3661106234666638e-09  3.1291755679680491e-09  -3.4058440984642420e-09  5.4755766658548218e-09  8.4011048735531207e-09  2.2524741948209704e-09  4.3069406325226227e-09  4.5034179611009300e-09  3.7109483688312081e-09  1.4299367705068021e-07  1.0302736397082081e-07  1.0108749780976670e-07  1.8851141779994018e-07  2.4270523154028737e-07  1.7359199760551397e-07  1.8521013348094042e-07  1.9531927142659248e-07  2.2167202517995732e-07  -1.3792113554722092e-07  2.1084884757785783e-07  -4.3579134515679236e-08  1.0042243861427234e-06  2.5604480738372814e-06  2.5013628763033605e-06  2.3452796430637026e-06  2.3948697738068875e-06  2.4541547547323029e-06  2.4975164677043836e-06  3.1504186918575519e-06  2.4759890207587104e-06  2.4534335313661129e-06  2.3858885662478644e-06  1.2882159983753419e-06  1.0606394318553877e-06  1.2492561648026794e-06  2.0622911751766267e-06  1.2415194969885337e-06  1.2097976479960079e-06  2.7985982790472195e-06  -7.2318574964878107e-06  -4.1831299042924050e-06  -4.6591975222104067e-06  -3.1746307753905237e-06  -1.6250207106881356e-06  -6.2307718204244328e-10  1.6236884202215374e-06  3.1733127978315580e-06  4.6579054943954684e-06  4.1820215831098483e-06  7.2307399883790734e-06  -2.7985420653680849e-06  -1.2098480438797451e-06  -1.2415712463535363e-06  -2.0623595369007942e-06  -1.2492966676860532e-06  -1.0606673688739547e-06  -1.2882379742559923e-06  -2.3859518661050416e-06  -2.4534691896265933e-06  -2.4760129180386274e-06  -3.1504465065834086e-06  -2.4975354334832394e-06  -2.4541875939387157e-06  -2.3948828210845923e-06  -2.3452801210796901e-06  -2.5013832639808869e-06  -2.5612048189544143e-06  -1.0089779839839186e-06  4.2100004110334632e-08  -2.1105904360860597e-07  1.3877450275649322e-07  -2.2580908994198302e-07  -1.9828744107166112e-07  -1.7998207631595267e-07  -1.7414733507628675e-07  -2.1267094761685355e-07  -1.5126054149074299e-07  -1.8758510807252316e-07  -1.0539023760522470e-07  -1.4335043757328568e-07  -4.1771968083100482e-09  -4.8156758396292967e-09  -4.5500465891403248e-09  -1.4063922374348066e-09  3.1649132537259827e-09  -3.1788605808316238e-09  -8.5224932227885002e-10  8.4999808705653366e-10  -1.9987356545536114e-09  -2.5831000454334770e-09  -5.2934725686088590e-10  -1.9472323285773440e-09  -1.2345289556346405e-09  2.3928851357975768e-10  -2.1159597506054834e-10  -5.9839309902118911e-10  -1.6881662562644774e-10  -4.5196551452669875e-10  -4.8196734495294077e-11  -5.3896182777438225e-11  -7.7259374496138292e-11  -1.9667804964331459e-11  -2.3508994124793849e-11  -1.8681099331560642e-11  -5.0076152344411452e-11  -4.4482847435739153e-11  -8.8535269642793706e-11  3.5467023995978728e-11  -5.5260137018578791e-13  1.6601391847446229e-11  1.2126702953878526e-11  1.5707585064164609e-11  -3.6379723415339415e-11  -3.2048112713457693e-11  -6.4106603175775088e-11  -7.3671694363882443e-12  -4.2745348391151517e-11  2.0889903250507911e-11  -1.1231344959278503e-10  -7.2423528768284740e-12  -8.6690671958850841e-11  -4.0554094976768035e-11  2.2306619814111716e-11  2.0970158965704255e-12  -4.4533831016007378e-12  9.6943194299788335e-13  -3.9472815548820676e-13  -9.8421790682665639e-13  1.1065436114514620e-13  -2.6654576757457291e-13  -5.2736456219827698e-13  5.5929793669406312e-13  5.4251502187029085e-14  2.1670851852907661e-13  3.9184118718314656e-13  2.7781368518489455e-13  3.5359475687466089e-13  9.1405989953120762e-14  8.8908525689006807e-14  1.9928763116083193e-13  4.7152728859391174e-14  -1.9994004658726933e-14  7.4126545605394785e-14  -1.4847360456851090e-15  6.5450718945413796e-14  1.5052293547294630e-13  -1.1790428689061995e-13  -3.0328506193040347e-14  -2.6322938381731590e-14  -6.8566671274293871e-14  -7.4308702219261119e-14  -1.5793742924236426e-14  2.4165393928527693e-14  -1.2661047149362904e-13  -1.1208163460201145e-13  1.6559788977573364e-14  -1.3380248496814188e-14  -2.7802476524094631e-14  -2.3865773378783615e-14  -1.7898788970660668e-14  -2.3954776999336766e-14  -1.3547514808280393e-14  -8.1427659239131583e-15  2.9539512589831595e-15  2.5075563320595888e-15  4.5928470830237758e-15  6.8204067021258355e-15  4.7282959136642809e-15  7.9610696764786368e-15  4.2705529115749050e-15  -1.9681019850658796e-15  -8.3365083276228132e-15  -9.2645683632726437e-07  1.1814294124891507e-07  6.4107425539591504e-07  1.5924652317699517e-06  2.8703896316529564e-06  2.5796996907402488e-06  3.3068531145469190e-06  4.6094861435265732e-06  6.0686764567110691e-06  4.5931334665855659e-06  5.8192648461510049e-06  8.3465809776450475e-06  8.4916308210169695e-06  8.4624127794709939e-06  1.1080677994800301e-05  1.3825938778208432e-05  9.5307869902548060e-06  9.3792326934409330e-06  1.1835567443094631e-05  1.2778980481495348e-05  1.3746122894960383e-05  1.6012421665050985e-05  1.5051740342793032e-05  1.5313327348337148e-05  1.3083465833692656e-05  1.8771267116110013e-05  1.8029414492293003e-05  1.5884294357326317e-05  1.7622899179168262e-05  2.1592150559048528e-05  1.9902339935768933e-05  2.0097065231587158e-05  1.9459958333853508e-05  1.8682481265474448e-05  1.7451464194226974e-05  1.7708848047034689e-05  1.7497103352011366e-05  1.3771220927357088e-05  1.4580483299797488e-05  1.1377140445545282e-05  1.9552297959157766e-05  2.1188666038532172e-05  1.2410814980396238e-05  1.1949299683953081e-05  1.2459836205619317e-05  1.1826652164685169e-05  9.5584053441127491e-06  1.1740787370988478e-05  9.7196462044688458e-06  9.4053852497656999e-06  9.8010653359548012e-06  8.7108960809212966e-06  8.8837370286489706e-06  9.1160383767317873e-06  5.4690850264382112e-06  8.2159765201531581e-06  6.3095362190429832e-06  6.3476021198524630e-06  6.0382547306122068e-06  3.0777422434684514e-06  4.1979009793740399e-06  3.8256892513624078e-06  2.2405543989471499e-06  9.8304562437283030e-07  9.4002819773669516e-07  1.6891342911912745e-08  1.4877556452816021e-07  -1.0553437513027684e-06  -1.4431753801807514e-06  -2.0664664014133572e-06  -3.4693360511240115e-06  -3.7854010646490621e-06  -4.3136361341543706e-06  -4.9195665128097753e-06  -6.3647016981067586e-06  -6.0010984597851399e-06  -6.3487905430795569e-06  -8.8133478568214000e-06  -9.7444986384153333e-06  -8.6617341952434915e-06  -1.1493521506535777e-05  -1.2963067868931445e-05  -1.2835771797662858e-05  -1.1699696169621028e-05  -9.1919304345236715e-06  -1.6481934952224998e-05  -1.5372708916483308e-05  -1.0221217511030443e-05  -1.0578946219122384e-05  -1.0994787846645378e-05  -1.1848975180168644e-05  -1.2473182043230534e-05  -1.3272566240885968e-05  -1.5875475072031915e-05  -1.3983015862586342e-05  -1.5601782280708997e-05  -1.6577517743383838e-05  -1.6194276088936473e-05  -1.7130652091253804e-05  -1.8525015389376927e-05  -1.9830714334701218e-05  -1.0711654423965989e-05  -1.1368699924927929e-05  -1.0505640789854787e-05  -1.0722856755962424e-05  -1.0896181486514682e-05  -1.1333402559656768e-05  -1.1226746554203203e-05  -1.1502089546864543e-05  -1.3170269011321692e-05  -1.2093706194923368e-05  -1.1985842078497909e-05  -1.2221252386470673e-05  -1.1857502986053487e-05  -1.1840974276195766e-05  -1.2976144914096903e-05  -1.1461420748088891e-05  -1.1174870522139494e-05  -1.1043226079248114e-05  -1.0191458345592106e-05  -1.1705976057606601e-05  -1.0326149876440444e-05  -7.8761182483403022e-06  -6.2153571539725070e-06  -6.8415250799896594e-06  -5.2043018293246644e-06  -3.9217658727019872e-06  -2.5953712300062420e-06  -2.4599066659988708e-07  -5.7057471239139075e-10  2.4472685640843688e-07  2.5941273832341531e-06  3.9205449544115413e-06  5.2031298167502433e-06  6.8404974357253026e-06  6.2143941339431949e-06  7.8751694540457761e-06  1.0325417548794140e-05  1.1705332361624802e-05  1.0190955012099635e-05  1.1042754629696893e-05  1.1174434471384954e-05  1.1461018294551051e-05  1.2975741089713151e-05  1.1840679209388910e-05  1.1857218318172717e-05  1.2221034617794949e-05  1.1985666012919621e-05  1.2093508549219657e-05  1.3170061942503621e-05  1.1501981903688934e-05  1.1226624504996096e-05  1.1333294940586966e-05  1.0896066635738862e-05  1.0722759518550463e-05  1.0505511673494073e-05  1.1366842596405738e-05  1.0690790943440776e-05  1.9746349828447376e-05  1.8442285882207237e-05  1.7117617022434755e-05  1.6221675359181129e-05  1.6885932709699153e-05  1.5816095817301724e-05  1.3944808157834896e-05  1.6136445953233911e-05  1.3786806628160992e-05  1.2732955819123676e-05  1.1875735722388193e-05  1.0983546970756167e-05  1.0509894079875645e-05  1.0137141071924760e-05  1.5351545784508628e-05  1.6468700704114146e-05  9.3512386187589352e-06  1.1092902790355456e-05  1.2423717925917536e-05  1.3029866390660959e-05  9.6432150597086065e-06  9.6289553068476317e-06  9.8509227124469871e-06  9.1957773688478454e-06  6.7318633202917163e-06  7.1338357972727577e-06  6.6966590253077759e-06  4.5862036818666523e-06  4.0257324824579739e-06  3.9649348485358679e-06  3.6420129249227512e-06  1.6879155689491287e-06  2.2107663674386408e-06  1.1508453012504117e-06  5.2242024565044734e-08  -1.4511958292273522e-08  -1.1350282600781953e-06  -1.1431818289181404e-06  -2.6488959782350252e-06  -4.0919379980763352e-06  -4.8529335978060886e-06  -6.4743292924230175e-06  -3.9910349298530710e-06  -5.5765169745099145e-06  -6.4093831828146595e-06  -8.5304465226654965e-06  -1.0903901653506463e-05  -1.0697820348723015e-05  -8.1145087932652763e-06  -8.5216352154412078e-06  -9.0168163281414686e-06  -1.1687814567666853e-05  -1.0549299438006827e-05  -9.8935839680501315e-06  -1.0625301477234093e-05  -1.1149403200666607e-05  -1.3657109872153186e-05  -1.7837274056016574e-05  -1.6437247423503972e-05  -1.0500241452886433e-05  -1.0579900889464572e-05  -1.0421850248007429e-05  -1.1945275421869964e-05  -1.5771897251063153e-05  -1.4369981425676448e-05  -1.1333188842060948e-05  -1.9317140552858511e-05  -1.7447022137537843e-05  -1.1231939206361212e-05  -1.5865587666365990e-05  -1.4161895710292409e-05  -1.6165316683328299e-05  -1.5909331316277615e-05  -1.7483749886821999e-05  -1.4800420618619298e-05  -1.8773676041161936e-05  -1.6584634775565427e-05  -1.1138671082816019e-05  -1.4345681092403050e-05  -1.3284155796478637e-05  -1.1631228011619044e-05  -1.1999042261406817e-05  -1.4694436359519255e-05  -1.2458289393819452e-05  -7.9884204600096915e-06  -1.1936244018164733e-05  -9.7035080934335614e-06  -9.2246342732764316e-06  -8.0179144553258743e-06  -8.2109554190313021e-06  -7.1188226256325953e-06  -6.2617161179805046e-06  -3.3517570895589845e-06  -4.5428572568583994e-06  -4.0751105850454559e-06  -3.0214613853830925e-06  -2.1170994208864348e-06  -1.1677698946885312e-06  -1.5708139419711047e-11  4.3774614321692184e-11  -2.2033084552740820e-11  4.2332874365969353e-11  -3.5965388871599836e-11  1.1080622361760233e-11  1.6609984433628274e-11  -1.6174740266497917e-09  -4.8199012426347859e-12  -1.9366883203010295e-09  3.3839478688625023e-12  1.1981660701835988e-09  -6.3532763531375119e-10  -3.0555844200870419e-09  7.2904349302215186e-10  -1.2240930677739613e-09  -8.0205265625768405e-10  1.1508041972832924e-12  -1.9995690329054565e-13  -5.6788787185551107e-13  -1.2618718287158950e-12  -1.8484123803702159e-11  1.6645202510479464e-10  1.1612069903506338e-10  -1.1114170930556647e-09  -1.4754964028388726e-11  1.4976961811253784e-12  1.1911104233670344e-09  -5.3866822609970655e-10  -1.8364383499563338e-09  8.4280076522650627e-10  1.7747924410610032e-12  1.5690284307012817e-11  6.2788829810748368e-14  6.0573197862772903e-13  -9.4060081608398468e-10  7.9229072366595432e-10  -1.9782087070817054e-10  -2.4884355351476747e-13  -8.3451683222294778e-10  -7.4132731596047861e-12  3.4534492482515650e-13  -2.0451709395523809e-12  7.2037060220493331e-10  6.2738389116199896e-09  -4.0100807686513685e-12  1.1988211442173195e-12  2.4272804923030613e-09  -3.7362213606830041e-12  1.4013156206029632e-09  -4.5081720123706746e-09  4.6253190742248329e-09  1.5545532926015286e-10  1.7429675045326969e-09  -6.5502610809344173e-12  -1.0371711474928335e-10  -1.2382975867924378e-11  -3.9941560692036813e-09  1.6794421767038669e-12  -1.6787073605759542e-09  -3.2771542476886938e-08  -1.1479338355571535e-09  -6.4860571804902360e-11  -7.4363118779968403e-10  2.6998090377433061e-08  -2.0895235570006195e-08  9.0373060197528727e-10  -1.0864052950710965e-10  4.5574914334697156e-13  -9.7154866338324351e-08  -5.3292622504560736e-08  -6.4487477809474074e-08  3.1691714677849152e-08  2.6692776776715487e-09  -4.2026477608464680e-08  -1.7505339839315731e-11  3.9471469895631427e-08  -3.4895536721955200e-08  1.5701474381891158e-11  1.2798584151294470e-11  -6.9224797451119405e-11  3.8325551979146774e-10  4.2499701159467999e-11  -3.5043446823138589e-11  -3.8278024719702066e-10  1.2042060203335289e-11  -1.7934488767414701e-10  4.3347922037410422e-09  7.1872789876551834e-08  3.2952412134537775e-14  3.5570269284728049e-14  7.7049404209762204e-08  -3.8294269743384935e-11  8.3556737464049899e-13  7.2794874069767898e-08  -6.1249162063282110e-08  -4.6708823164105566e-13  -1.0172206908822585e-07  -6.6697924352713745e-13  -4.2185330869575478e-11  5.2667892965846163e-15  3.2701552633067045e-10  4.0050185825835834e-11  -1.8918053780543714e-13  6.3113144060814383e-14  -4.0550711110268497e-08  -3.6954741791518243e-10  7.0090752398134763e-08  -7.9681703443837452e-14  -9.2953534066382587e-14  -1.9742473934789799e-11  1.6042721366003934e-12  2.1365576682324003e-13  9.5703621150760122e-11  3.0788032730639228e-13  7.7611062653143713e-09  2.4046378892667318e-08  4.0129271005946626e-13  -1.0488825227938608e-07  8.0711094290435036e-12  -9.6299204190384432e-12  -4.4399798895293751e-12  5.3845938462271886e-10  -4.7493727994352488e-08  -2.1960236201080031e-13  -9.4802584497588921e-14  -3.6591853846319310e-12  -4.9746251857466370e-12  7.5992210902543586e-08  -9.5733912848857682e-08  -6.5156124213315979e-13  1.1232349489523955e-11  2.0309171164084709e-13  7.9116162654631475e-08  2.7926797195685665e-11  7.7995479415075130e-09  6.8760234660107803e-12  1.8053827959737573e-11  -1.4589487375413440e-10  -1.1164808661549551e-07  5.4499999060165123e-12  4.2484230991487243e-11  -1.3362155418768845e-07  9.8649556253082601e-14  -1.0295783461448249e-10  -2.3917933959971738e-10  3.0908062975828325e-08  -2.3546141836459910e-10  -1.5991445871590222e-09  -2.6435609483207342e-10  1.2061034825230860e-10  5.1701410989324747e-08  -3.8074201095621389e-10  -5.5710007290145014e-08  -3.3586975829194857e-10  -1.6394943740961285e-11  -2.7046023799616156e-08  3.3850564342241899e-08  -3.2581463441067890e-10  -1.5711994883573643e-07  1.3170504921144957e-11  5.8151957795183575e-12  9.5009986448953539e-08  -9.8321937258405053e-10  1.7071721626521321e-10  1.8188190060506665e-10  -1.4796636789833534e-13  3.6757649936143007e-10  1.4813141757755648e-07  -9.4005826131761354e-09  8.4494855581719175e-14  1.8728512699715906e-11  4.6883580710306941e-10  1.0957298066562494e-07  4.2770145867918472e-08  -4.3128703922860346e-08  5.0723238051458564e-12  -2.4312833580250593e-11  2.7017108095506824e-08  1.8048176524231790e-11  9.1004466897711182e-09  -2.6746905540956312e-11  1.7951321431407887e-10  2.8347852037359119e-08  -2.0183735145485685e-10  -4.7170889151475592e-10  1.0708859793238647e-11  1.8241099064992192e-11  -2.5398184464092690e-12  2.0613284452010357e-12  -1.9694212869741414e-11  -4.0978169811603720e-10  7.9315547062310560e-10  1.3644654110083455e-10  8.8158804553572287e-08  1.3644626936227255e-07  -1.7500961824381501e-07  -9.0914824611528394e-08  -8.1591907891311396e-08  2.2165081458184279e-09  6.8593796172564442e-11  -7.2679490294188518e-09  2.1531044128637530e-09  -1.5973343192788497e-14  -5.7777558357252804e-11  2.3763899274864323e-08  -5.0788794668378941e-08  4.8378024142883969e-07  -2.1555901420707666e-11  -4.2514335589989375e-08  1.6987681775010763e-09  1.5682189671662660e-10  -1.1520653151068040e-09  -5.2881838348965804e-11  1.4076204838592792e-10  -1.6219925794427932e-10  2.5412713221235147e-15  1.1575808669210888e-09  6.4896696077661006e-13  -1.2515677515858438e-12  -2.4157762229786811e-12  -1.0097531011587092e-10  -1.0302476019649749e-14  1.5648803711460061e-11  8.2144868672845420e-10  6.4913202103535568e-13  -4.9096292922970277e-07  -4.6306001689289173e-16  -9.7142027535527374e-13  4.7691314611471129e-10  2.5695827634814587e-12  -2.8412916737857941e-14  2.9882814659588206e-08  -1.3365968756374198e-12  1.1043196546506258e-09  -1.0659328336022316e-08  8.9378918198142013e-08  -7.2102657840948296e-07  -1.8604584086459808e-07  3.3931282053568428e-13  6.2442775463024921e-13  6.7565311058991261e-12  -3.2147859577064451e-12  -9.5495822330424661e-11  7.6266735831420826e-15  -1.6208557007792423e-10  3.3801057412942810e-11  -1.2704661608577922e-09  2.3638555703217451e-07  -8.1870080573517853e-12  -6.6546202344917491e-07  6.0880834252894092e-07  -2.3968813500398762e-10  -4.1024841782522877e-12  5.7158226045610807e-11  -1.6024510984270372e-09  -2.0993651846655581e-10  2.2933230425484699e-10  -4.4116671291245875e-10  -4.7721789778856126e-10  -2.8437027736476218e-09  9.2062558453863269e-09  -5.5704388516935105e-09  -1.2750952036091709e-10  8.5249103177702153e-12  -2.3222912454954358e-07  -2.5538124907159718e-13  -1.4213780199833714e-07  3.5304987320140009e-12  -3.1174087174877660e-09  1.6706945757843648e-08  3.8216698554146730e-07  1.3446423045059068e-10  -6.9419194274646622e-14  -1.3907732471289440e-08  -3.4645501190923833e-10  2.0769813585423111e-10  -4.4678609113504862e-10  3.9939456640365712e-07  -6.3933875107566029e-09  -5.6626940686436339e-13  4.3095457895127242e-12  -8.5853535024880352e-08  1.2351336658143923e-12  -6.7957418621982980e-10  -7.3541848329872913e-11  -8.8199245499999674e-11  -9.0510640766174983e-11  1.4674829426009115e-07  -5.0373936067557371e-10  5.7445449422440504e-10  -4.3123823570182987e-10  5.6026465453984338e-07  -3.8137743412946496e-07  -6.9376715404230532e-11  -1.2896353848647614e-12  6.3631597481954827e-13  1.7431701859594606e-09  3.0944423281739081e-07  2.7639480030522674e-09  -8.5584259248247590e