<?xml version="1.0"?>
<VTKFile type="UnstructuredGrid"  version="0.1"  >
<UnstructuredGrid>
<Piece  NumberOfPoints="3053" NumberOfCells="5111">
<Points>
<DataArray  type="Float64"  NumberOfComponents="3"  format="ascii">1.25 0 0  1.249623523370255 0.03067653565364036 0  1.248494320256466 0.06133459290927252 0  1.246613070848363 0.09195570449958429 0  1.243980908340246 0.1225214254119508 0  1.240599418248387 0.1530133439990203 0  1.236470637455976 0.1834130930692022 0  1.231597052986177 0.2137023609503765 0  1.225981600504038 0.2438629025201603 0  1.219627662548161 0.2738765501960873 0  1.21253906649318 0.3037252248790798 0  1.2047200822443 0.333390946843623 0  1.196175419665261 0.3628558465680779 0  1.186910225741296 0.3921021754986144 0  1.176930081478776 0.4211123167402751 0  1.166240998543424 0.4498687956687352 0  1.154849415639108 0.4783542904563622 0  1.142762194629413 0.5065516425062373 0  1.129986616404304 0.5344438667878526 0  1.116530376494394 0.5620141620682582 0  1.102401580435444 0.5892459210324971 0  1.087608738885889 0.61612274028723 0  1.07216076250034 0.642628430241527 0  1.056066956562134 0.6687470248588714 0  1.039337015378182 0.6944627912745027 0  1.02198101643948 0.7197602392723067 0  1.004009414350806 0.7446241306155417 0  0.9854330345332579 0.7690394882257835 0  0.9662630667034212 0.7929916052045569 0  0.9465110581331058 0.8164660536922209 0  0.9261889066936989 0.8394486935587729 0  0.9053088536893338 0.8619256809213336 0  0.8838834764831844 0.8838834764831843 0  0.8619256809213337 0.9053088536893337 0  0.8394486935587729 0.9261889066936989 0  0.8164660536922209 0.9465110581331055 0  0.7929916052045569 0.9662630667034212 0  0.7690394882257835 0.9854330345332578 0  0.7446241306155419 1.004009414350806 0  0.7197602392723067 1.02198101643948 0  0.6944627912745028 1.039337015378182 0  0.6687470248588716 1.056066956562134 0  0.642628430241527 1.07216076250034 0  0.6161227402872301 1.087608738885889 0  0.5892459210324973 1.102401580435444 0  0.5620141620682583 1.116530376494394 0  0.5344438667878527 1.129986616404304 0  0.5065516425062373 1.142762194629413 0  0.4783542904563623 1.154849415639108 0  0.4498687956687353 1.166240998543424 0  0.4211123167402751 1.176930081478776 0  0.3921021754986145 1.186910225741296 0  0.3628558465680779 1.196175419665261 0  0.333390946843623 1.2047200822443 0  0.30372522487908 1.21253906649318 0  0.2738765501960872 1.219627662548161 0  0.2438629025201604 1.225981600504038 0  0.2137023609503767 1.231597052986177 0  0.1834130930692022 1.236470637455976 0  0.1530133439990203 1.240599418248387 0  0.122521425411951 1.243980908340246 0  0.09195570449958432 1.246613070848363 0  0.06133459290927266 1.248494320256466 0  0.03067653565364033 1.249623523370255 0  7.654042494670958e-17 1.25 0  -0.03067653565364018 1.249623523370255 0  -0.06133459290927251 1.248494320256466 0  -0.09195570449958416 1.246613070848363 0  -0.1225214254119508 1.243980908340246 0  -0.1530133439990202 1.240599418248387 0  -0.1834130930692021 1.236470637455976 0  -0.2137023609503766 1.231597052986177 0  -0.2438629025201602 1.225981600504038 0  -0.2738765501960871 1.219627662548161 0  -0.3037252248790798 1.21253906649318 0  -0.3333909468436229 1.2047200822443 0  -0.3628558465680777 1.196175419665261 0  -0.3921021754986143 1.186910225741296 0  -0.4211123167402749 1.176930081478776 0  -0.4498687956687352 1.166240998543424 0  -0.4783542904563621 1.154849415639108 0  -0.5065516425062372 1.142762194629413 0  -0.5344438667878524 1.129986616404304 0  -0.5620141620682584 1.116530376494394 0  -0.5892459210324972 1.102401580435444 0  -0.61612274028723 1.087608738885889 0  -0.642628430241527 1.07216076250034 0  -0.6687470248588713 1.056066956562134 0  -0.6944627912745025 1.039337015378182 0  -0.7197602392723067 1.02198101643948 0  -0.7446241306155417 1.004009414350806 0  -0.7690394882257834 0.9854330345332579 0  -0.7929916052045567 0.9662630667034213 0  -0.8164660536922207 0.9465110581331059 0  -0.8394486935587731 0.9261889066936988 0  -0.8619256809213337 0.9053088536893337 0  -0.8838834764831843 0.8838834764831844 0  -0.9053088536893334 0.8619256809213338 0  -0.9261889066936986 0.8394486935587732 0  -0.9465110581331058 0.8164660536922208 0  -0.9662630667034212 0.7929916052045569 0  -0.9854330345332578 0.7690394882257836 0  -1.004009414350806 0.7446241306155419 0  -1.02198101643948 0.7197602392723068 0  -1.039337015378182 0.6944627912745027 0  -1.056066956562134 0.6687470248588714 0  -1.07216076250034 0.6426284302415273 0  -1.087608738885889 0.6161227402872302 0  -1.102401580435444 0.5892459210324973 0  -1.116530376494394 0.5620141620682586 0  -1.129986616404304 0.5344438667878525 0  -1.142762194629413 0.5065516425062374 0  -1.154849415639108 0.4783542904563624 0  -1.166240998543424 0.4498687956687354 0  -1.176930081478776 0.4211123167402754 0  -1.186910225741296 0.3921021754986143 0  -1.196175419665261 0.362855846568078 0  -1.2047200822443 0.3333909468436231 0  -1.21253906649318 0.3037252248790801 0  -1.219627662548161 0.2738765501960876 0  -1.225981600504038 0.2438629025201608 0  -1.231597052986177 0.2137023609503765 0  -1.236470637455976 0.1834130930692023 0  -1.240599418248387 0.1530133439990204 0  -1.243980908340246 0.122521425411951 0  -1.246613070848363 0.09195570449958466 0  -1.248494320256466 0.06133459290927246 0  -1.249623523370255 0.03067653565364041 0  -1.25 1.530808498934192e-16 0  -1.249623523370255 -0.0306765356536401 0  -1.248494320256466 -0.06133459290927215 0  -1.246613070848363 -0.09195570449958437 0  -1.243980908340246 -0.1225214254119507 0  -1.240599418248387 -0.1530133439990201 0  -1.236470637455976 -0.183413093069202 0  -1.231597052986177 -0.2137023609503762 0  -1.225981600504038 -0.2438629025201605 0  -1.219627662548161 -0.2738765501960873 0  -1.21253906649318 -0.3037252248790798 0  -1.2047200822443 -0.3333909468436228 0  -1.196175419665261 -0.3628558465680776 0  -1.186910225741296 -0.392102175498614 0  -1.176930081478776 -0.4211123167402752 0  -1.166240998543424 -0.4498687956687352 0  -1.154849415639108 -0.4783542904563621 0  -1.142762194629413 -0.5065516425062371 0  -1.129986616404304 -0.5344438667878523 0  -1.116530376494394 -0.5620141620682583 0  -1.102401580435444 -0.5892459210324971 0  -1.087608738885889 -0.6161227402872299 0  -1.07216076250034 -0.6426284302415269 0  -1.056066956562134 -0.6687470248588712 0  -1.039337015378182 -0.6944627912745025 0  -1.02198101643948 -0.7197602392723067 0  -1.004009414350806 -0.7446241306155416 0  -0.9854330345332579 -0.7690394882257834 0  -0.9662630667034213 -0.7929916052045566 0  -0.946511058133106 -0.8164660536922207 0  -0.9261889066936989 -0.8394486935587731 0  -0.9053088536893338 -0.8619256809213336 0  -0.8838834764831847 -0.8838834764831843 0  -0.8619256809213338 -0.9053088536893334 0  -0.8394486935587733 -0.9261889066936986 0  -0.8164660536922214 -0.9465110581331053 0  -0.7929916052045574 -0.9662630667034209 0  -0.7690394882257841 -0.9854330345332574 0  -0.7446241306155414 -1.004009414350806 0  -0.7197602392723066 -1.02198101643948 0  -0.6944627912745027 -1.039337015378182 0  -0.6687470248588716 -1.056066956562134 0  -0.6426284302415273 -1.07216076250034 0  -0.6161227402872302 -1.087608738885889 0  -0.5892459210324973 -1.102401580435444 0  -0.5620141620682586 -1.116530376494394 0  -0.5344438667878531 -1.129986616404304 0  -0.506551642506238 -1.142762194629413 0  -0.4783542904563629 -1.154849415639108 0  -0.4498687956687349 -1.166240998543424 0  -0.4211123167402749 -1.176930081478776 0  -0.3921021754986143 -1.186910225741296 0  -0.3628558465680781 -1.196175419665261 0  -0.3333909468436231 -1.2047200822443 0  -0.3037252248790802 -1.21253906649318 0  -0.2738765501960876 -1.219627662548161 0  -0.2438629025201608 -1.225981600504038 0  -0.2137023609503771 -1.231597052986176 0  -0.1834130930692029 -1.236470637455976 0  -0.1530133439990199 -1.240599418248387 0  -0.1225214254119506 -1.243980908340246 0  -0.09195570449958419 -1.246613070848363 0  -0.06133459290927254 -1.248494320256466 0  -0.03067653565364049 -1.249623523370255 0  -2.296212748401287e-16 -1.25 0  0.03067653565364003 -1.249623523370255 0  0.06133459290927207 -1.248494320256466 0  0.09195570449958373 -1.246613070848363 0  0.1225214254119501 -1.243980908340246 0  0.1530133439990195 -1.240599418248387 0  0.1834130930692024 -1.236470637455976 0  0.2137023609503766 -1.231597052986177 0  0.2438629025201604 -1.225981600504038 0  0.2738765501960872 -1.219627662548161 0  0.3037252248790797 -1.21253906649318 0  0.3333909468436227 -1.2047200822443 0  0.3628558465680776 -1.196175419665261 0  0.3921021754986139 -1.186910225741296 0  0.4211123167402745 -1.176930081478776 0  0.4498687956687345 -1.166240998543424 0  0.4783542904563625 -1.154849415639108 0  0.5065516425062375 -1.142762194629413 0  0.5344438667878527 -1.129986616404304 0  0.5620141620682583 -1.116530376494394 0  0.589245921032497 -1.102401580435444 0  0.6161227402872298 -1.087608738885889 0  0.6426284302415269 -1.07216076250034 0  0.6687470248588712 -1.056066956562134 0  0.6944627912745023 -1.039337015378182 0  0.7197602392723061 -1.02198101643948 0  0.7446241306155411 -1.004009414350806 0  0.7690394882257838 -0.9854330345332576 0  0.792991605204557 -0.9662630667034211 0  0.8164660536922209 -0.9465110581331058 0  0.8394486935587729 -0.9261889066936989 0  0.8619256809213336 -0.9053088536893338 0  0.8838834764831842 -0.8838834764831847 0  0.9053088536893333 -0.8619256809213339 0  0.9261889066936986 -0.8394486935587733 0  0.9465110581331053 -0.8164660536922214 0  0.9662630667034209 -0.7929916052045574 0  0.9854330345332574 -0.7690394882257843 0  1.004009414350806 -0.7446241306155416 0  1.02198101643948 -0.7197602392723066 0  1.039337015378182 -0.6944627912745027 0  1.056066956562134 -0.6687470248588716 0  1.07216076250034 -0.6426284302415274 0  1.087608738885889 -0.6161227402872304 0  1.102401580435443 -0.5892459210324974 0  1.116530376494394 -0.5620141620682587 0  1.129986616404304 -0.5344438667878532 0  1.142762194629413 -0.50655164250623
[...]
<PointData  Scalars="f_17309"> 
<DataArray  type="Float64"  Name="f_17309"  format="ascii">2.4249095653320799e-15  1.6248191949850615e-15  -1.3892981742688250e-15  1.1294756692795386e-15  3.5470657969491040e-15  2.2451853090931525e-15  -1.8775502849031853e-16  7.0690544856686613e-17  1.3628309357129411e-15  -2.7439754952716925e-15  7.7578559786812748e-15  3.7909817446432783e-15  2.2157573139077820e-14  2.2066741228540001e-14  5.7767054913723087e-15  1.0894689612732177e-14  3.6374497542524717e-16  5.7592294081694796e-16  1.1812714488959017e-17  -9.2516431725042413e-15  -2.0173828034134998e-14  1.5867850159738649e-14  5.0650635221588154e-14  1.8663523054864786e-14  1.0006132311476451e-14  1.0674661975272385e-14  1.7967795120235589e-14  6.1820849002484407e-14  -1.2149852016876527e-13  6.8211374497370287e-14  -2.3354279432251064e-13  7.7617907029587495e-13  5.0158477844660514e-13  1.0425607249760146e-12  -8.5061182309768481e-13  -1.1967606071362770e-12  4.6482232549390191e-13  5.9132726492063673e-13  2.9772506168209236e-13  5.7051670463843264e-13  -2.2834000935071840e-13  -3.7302306551398930e-12  -1.8624622761513298e-12  -4.0586750551731991e-12  2.7442514386162784e-12  3.6397590602772769e-12  -2.7705764277008946e-12  -1.9026647922401256e-12  2.9755981372757570e-13  8.2322164451831663e-13  5.7343574210162381e-13  1.0452656810280470e-12  -9.0839325169607840e-13  -9.1559108615364921e-13  -1.3557286190593992e-12  5.4255098533472430e-13  -2.1632256993916125e-12  6.5446013189226388e-12  1.2155958279495900e-11  3.4382422833676938e-12  1.5943688305612549e-12  -5.6463797429119437e-12  -1.3137679523686339e-12  3.3395381116441801e-12  -4.9667281271577428e-14  1.9443372458192755e-12  -2.7729284564876368e-12  -6.0107888926188859e-12  -9.7488802580629770e-12  -2.9474622764012316e-12  -8.0682669411145153e-12  6.2605950100213034e-12  -3.5418655165443074e-11  8.9804605229540376e-11  3.4834616014016782e-11  6.6003086629446786e-11  5.5456423442212369e-11  2.0938588269431245e-10  8.1188770849546355e-11  6.6149825077968142e-10  1.0052721508661429e-09  4.0200027762928807e-10  4.1239806381566354e-10  -4.9271810137817094e-10  8.3624858338871036e-10  8.1147700361752122e-10  -9.4327151333621845e-10  1.2333228377168424e-09  2.1135515992635426e-09  4.5516746892172198e-10  7.7452845885118518e-10  7.0990201125870570e-10  8.0254974191507508e-10  3.8018019169940206e-08  2.7718426671163444e-08  2.7859335255398872e-08  5.0581693253548170e-08  6.5365430975009886e-08  4.6427981095048407e-08  4.8611344025342638e-08  5.2941245322846482e-08  5.9896206035906880e-08  -4.1990850060464839e-08  5.1921635102294455e-08  -1.9867452715440658e-08  2.3793347994002534e-07  6.4347356159442218e-07  6.3218833348033088e-07  6.0910351337660605e-07  6.1452680968838299e-07  4.7395378410120900e-07  -1.2151260078302197e-07  5.2261781030535667e-09  9.9391912940439207e-08  1.0016017322146884e-07  9.7420729452155815e-08  3.9793724696245628e-08  3.3373825370606956e-08  3.3606912662924019e-08  7.8566159811065716e-08  3.3186613771738816e-08  4.2831642471783171e-08  9.4442008877103211e-07  -3.9550040577320373e-06  -2.5403620253545600e-06  -2.5394901397612547e-06  -1.7392899231103610e-06  -9.1095612634860988e-07  -1.2447440464538071e-10  9.1066572916863961e-07  1.7390103551269304e-06  2.5392128016718974e-06  2.5401311790717629e-06  3.9547961741937966e-06  -9.4439179681738479e-07  -4.2837182991575904e-08  -3.3186412247135106e-08  -7.8566964136278833e-08  -3.3606785406743897e-08  -3.3374759341523326e-08  -3.9792869962500683e-08  -9.7422618184591007e-08  -1.0016055630811530e-07  -9.9390937223381385e-08  -5.2248835626735664e-09  1.2150994653131269e-07  -4.7396748893422096e-07  -6.1452966613570414e-07  -6.0910671866725363e-07  -6.3220536749951041e-07  -6.4370998807149000e-07  -2.3895157870424687e-07  1.9642750950370268e-08  -5.1869517167620192e-08  4.2271888438597538e-08  -6.0897627354635520e-08  -5.3839222692066874e-08  -4.7219810223029619e-08  -4.6653641254752911e-08  -5.7247994012454636e-08  -4.0743837911808186e-08  -5.0506887053736092e-08  -2.8004116522325148e-08  -3.8112882942536727e-08  -8.8483098561414974e-10  -7.5167099599988242e-10  -7.7326934412056270e-10  -8.5875961009405864e-11  1.0948513878187477e-09  -6.9247746449481097e-10  -1.7590227516751393e-10  1.5558996790039710e-10  -5.5890811780878283e-10  -6.7203270407051168e-10  -1.9679161086118881e-10  -5.6865107354188337e-10  -3.4183591931263049e-10  6.3576829808268782e-11  -9.6471683807782736e-11  -1.5637332573803381e-10  -3.3176939987349933e-11  -1.3423950091912237e-10  -2.4334254938059690e-11  1.6196919311031479e-11  -6.2460661703903382e-12  -8.3701095641959908e-12  2.4773592303961832e-12  1.0048474893274893e-11  -7.4672753363237498e-12  -1.1343019985269356e-11  -2.2981721198718286e-11  8.2210630275142549e-12  -1.3081882011627131e-12  3.5944556142813115e-12  3.3664989339579145e-12  3.8004458338377799e-12  -9.0738099153486267e-12  -9.3799261796829645e-12  -1.7864691022455915e-11  -2.5520744537834145e-12  -1.1307301843688050e-11  5.7924095232523007e-12  -2.9624034891605974e-11  -9.7686214936194483e-13  -2.2552194806967813e-11  -1.1071271615315450e-11  6.2881527277832277e-12  7.9916326194005938e-13  -9.6418332771665635e-13  2.3450640834662338e-13  -3.7096684590112466e-14  3.8339232893402996e-14  8.1827293220911508e-15  -1.4656170559946246e-14  -5.2365293442228277e-14  1.2235416863035387e-13  -5.8929520077329667e-14  3.0759233344171278e-14  5.8751716391093769e-14  1.3713055937677091e-15  4.2695057497359020e-14  1.0571047530507522e-15  -2.4744601122116311e-14  7.8463563207105371e-15  -1.3366349701912194e-14  -6.5279824629729355e-15  7.5303333621206494e-15  -9.0316439647304200e-16  1.9267755727616515e-14  2.3402562414919956e-14  8.3282888320863362e-16  -4.8953025866113802e-16  -6.1266336818362213e-15  -7.4760403382829478e-15  -2.6090853196728014e-15  -2.3906013446810205e-15  1.1083446634911831e-14  -2.7324557773838366e-14  -2.6927389918973359e-14  1.0564311535531981e-14  -3.4860375844715399e-15  -4.5571005094264261e-15  9.0931887455335046e-16  4.9506425137642385e-17  -8.1118346444526529e-16  -1.4367216571618904e-15  -4.2083961334415470e-16  1.3239150532007858e-16  6.8873874509188292e-16  3.5104901350497412e-16  1.1085263361625973e-15  6.9396804434632951e-16  1.2610612689606477e-15  1.2341333424025838e-15  -2.8432477634972659e-16  3.6867327311063084e-16  -2.3647813594883593e-07  1.5366986456010577e-08  1.5643676182927421e-07  4.2195128657353500e-07  7.5909010737350751e-07  6.2295793622774301e-07  8.2438471141127528e-07  1.1911469000591195e-06  1.5975346471955170e-06  1.1328808693319854e-06  1.4780715696731936e-06  2.1444979370203288e-06  2.2018650860992827e-06  2.1571615613124023e-06  2.8451512148096997e-06  3.6852517454860896e-06  2.3860604479223186e-06  2.3711318482624514e-06  3.0230230176881483e-06  3.2646849325258891e-06  3.5199630445377837e-06  4.2318189340296666e-06  3.8475350781571758e-06  3.8926963979437391e-06  3.3011844587158745e-06  4.8095007630660497e-06  4.6958144420191714e-06  4.0440530716103352e-06  4.5043549766268134e-06  5.7409164709875153e-06  5.1119408852143477e-06  5.1868481224475975e-06  4.9640528115442547e-06  4.7898031995150576e-06  4.4411672553902597e-06  4.5296605673993394e-06  4.4670749819883644e-06  3.5053952343821696e-06  3.8175950511156044e-06  2.8488604886863205e-06  5.0262649482689321e-06  5.6681849858039802e-06  3.1741419500507188e-06  3.0654563004434285e-06  3.1780857626520840e-06  3.0623703899980083e-06  2.4013458976685531e-06  3.0815353533477548e-06  2.4757608329935348e-06  2.3961170408655836e-06  2.5471724313192302e-06  2.2050906170351155e-06  2.2670598693155700e-06  2.4111716524306120e-06  1.3748555702033459e-06  2.1616714813596593e-06  1.5964338243727218e-06  1.6140095036531727e-06  1.6056279838167175e-06  7.8431917661533561e-07  1.0552090285980167e-06  1.0147032893512387e-06  5.8738312765276633e-07  2.3761339683196117e-07  2.2466361002367279e-07  1.7893776330538477e-08  7.5720393996121786e-08  -2.8469720763269278e-07  -3.6877369105474372e-07  -5.3290349653113338e-07  -9.2387557276169127e-07  -9.6264544900571442e-07  -1.0946048502737395e-06  -1.2410547585409416e-06  -1.6340657963342855e-06  -1.5339710415634503e-06  -1.6211437446100534e-06  -2.3049069922801863e-06  -2.4803268265700603e-06  -2.1974238823871728e-06  -2.9951432321309551e-06  -3.3222103871878980e-06  -3.3370823423378483e-06  -2.9728974161388866e-06  -2.3234037248030652e-06  -4.3835349882362044e-06  -3.9455915664732484e-06  -2.5996801943559391e-06  -2.7111893041019651e-06  -2.7994673296450956e-06  -3.0295038064963334e-06  -3.1738104096638828e-06  -3.3867949056010986e-06  -4.1788529926350956e-06  -3.5408287753231396e-06  -3.9835208148996849e-06  -4.2906084602472826e-06  -4.1270291238234832e-06  -4.3762788871757095e-06  -4.7565365154973724e-06  -5.2760981496459729e-06  -2.7087951927156740e-06  -2.9556335070618455e-06  -2.6883269441332913e-06  -2.7365973080664245e-06  -2.7810763874879727e-06  -2.9019469840653019e-06  -2.9418859135708026e-06  -3.6544255534912515e-06  -5.7738970655662684e-06  -6.9193359346846856e-06  -5.8995473694105639e-06  -6.0523770845991176e-06  -5.8149638418858184e-06  -5.8171183161341367e-06  -6.4389524361057041e-06  -5.6114312312626552e-06  -5.4959778412230390e-06  -5.4282390250683077e-06  -4.9636858954757104e-06  -5.8103461038275090e-06  -5.1792796272296785e-06  -4.0262299917292002e-06  -3.5033065792479560e-06  -3.8136126245257926e-06  -2.8758317860943857e-06  -2.1796758479786744e-06  -1.4444547221834588e-06  -2.2262570905544863e-07  -1.1441113456246763e-10  2.2237072132493216e-07  1.4442026432465618e-06  2.1794302556727055e-06  2.8755921152965652e-06  3.8133912219356898e-06  3.5031299296112376e-06  4.0260301272047285e-06  5.1790904708034417e-06  5.8101808558513930e-06  4.9635681670585618e-06  5.4281314597133098e-06  5.4958704927959741e-06  5.6113334798256462e-06  6.4388524743238364e-06  5.8170560489982101e-06  5.8149003074214255e-06  6.0523339923844336e-06  5.8995149830527132e-06  6.9192895603439176e-06  5.7738754771621625e-06  3.6544160914553079e-06  2.9418739134677247e-06  2.9019396485397535e-06  2.7810669228128950e-06  2.7365919097655928e-06  2.6883144284761651e-06  2.9551302083716105e-06  2.7023858424661000e-06  5.2527245399334276e-06  4.7350911672386410e-06  4.3748325893455661e-06  4.1361629818763968e-06  4.3848333853191512e-06  4.0357026696185090e-06  3.5112658076953602e-06  4.2482575043368875e-06  3.5426060307273424e-06  3.2417927477837741e-06  3.0286075529212360e-06  2.7950310299563389e-06  2.6900864473936488e-06  2.5737469371257610e-06  3.9385367629906709e-06  4.3806162434054109e-06  2.3777440506770419e-06  2.8220097388042326e-06  3.2331333015472561e-06  3.3427483756123316e-06  2.4330072319539000e-06  2.4690202172224808e-06  2.5196996540452544e-06  2.4174602660603848e-06  1.7035717871982651e-06  1.8077121367354749e-06  1.7614312968985294e-06  1.1705770687080208e-06  1.0247715315046956e-06  1.0140354347537127e-06  9.7625600066988080e-07  4.1660447300377595e-07  5.6990776073203692e-07  3.0723386562291541e-07  -1.7371654875444722e-08  -1.8538315570188836e-08  -2.8283976363979215e-07  -2.8664451014711658e-07  -6.9275748250813760e-07  -1.0760107343144662e-06  -1.2515034052385551e-06  -1.7186075004527893e-06  -9.8089940964383300e-07  -1.4265259542209970e-06  -1.6370602044618225e-06  -2.2143513701209444e-06  -2.9074090829881605e-06  -2.7416866148666518e-06  -2.0498951787922682e-06  -2.1833690011522828e-06  -2.2929267183923201e-06  -2.9954851932989733e-06  -2.7132983913180695e-06  -2.5227072644988665e-06  -2.7220987338408163e-06  -2.8402152005598087e-06  -3.5153745203117523e-06  -4.7476341175627950e-06  -4.2188047872723472e-06  -2.6477566978434045e-06  -2.7159419484074409e-06  -2.6545617188656946e-06  -3.0413291273048437e-06  -4.1588015678924400e-06  -3.6722801036159525e-06  -2.8578792276804050e-06  -5.1206656746321438e-06  -4.4731938067883331e-06  -2.8307176516463171e-06  -4.1632458693111741e-06  -3.5974143811644782e-06  -4.1203604765881998e-06  -4.0508178771973635e-06  -4.6047622776511869e-06  -3.7251534960316288e-06  -4.9743023162675348e-06  -4.2565094729493870e-06  -2.8393707983641895e-06  -3.6474916352485437e-06  -3.3993084222663835e-06  -2.9537766430796313e-06  -3.0473014027141240e-06  -3.8965977065884270e-06  -3.1983841254581975e-06  -2.0015405691737924e-06  -3.1450988335041998e-06  -2.4789775100781488e-06  -2.3596257438419047e-06  -2.0146993049497141e-06  -2.1228693744502248e-06  -1.8195571496410396e-06  -1.6686826457666591e-06  -8.4297320266626649e-07  -1.1545361029996266e-06  -1.0881602931193354e-06  -7.8455849087376124e-07  -5.4119865878492288e-07  -2.8604580652677363e-07  -2.7509523347120530e-12  7.1706267436628492e-12  -3.4330562549653558e-12  1.0356090357799780e-11  -6.7391214476376805e-12  3.0904881782898292e-12  4.1832634946520363e-12  -4.2912961837622006e-10  -3.8053426654860117e-12  -5.2999672307752692e-10  7.8077127183509342e-13  3.3517877676253153e-10  -1.6576270925309236e-10  -8.6949376556388642e-10  1.8523827461752215e-10  -3.2880828718141066e-10  -1.9537918575007088e-10  2.1927445692394354e-13  1.2259687924131837e-13  -5.4462325780769551e-13  -1.9132560571897081e-13  2.7855556438718700e-12  3.0176930969167817e-11  -1.9547956982752202e-11  -2.1409501626138081e-10  -3.8767402022165234e-12  4.0837568811387950e-13  3.2388560160398138e-10  -1.2368655433893191e-10  -4.9476676525352310e-10  2.4428358628645357e-10  5.8847049156195996e-13  4.1459697320444928e-12  2.6691977371018498e-14  7.3663136857154760e-15  -2.0364108525353544e-10  1.3505738320000487e-10  9.5630373990476107e-12  -9.9403151854320203e-15  -2.2635943715684535e-10  -9.5924634159164333e-13  1.1193268353553129e-13  -4.2989300358847602e-13  1.3790240649581096e-10  1.6200169471400987e-09  -1.2272318591458409e-12  3.1427455001447782e-13  5.7059615452842558e-10  -8.7535187261971183e-13  4.2009681375634569e-10  -9.6412128069642310e-10  1.0406123502183142e-09  4.7654890131548656e-11  4.3947953234264890e-10  -8.8161409583326019e-13  -3.0873427557492119e-11  -3.1643895264565509e-12  -9.4989902595031275e-10  1.0490545540058528e-13  -5.9496385230796085e-10  -8.6010322153413837e-09  -2.8435868784454552e-10  -1.9048293174912347e-11  -1.9168606913789743e-10  6.9554536166479511e-09  -5.6427174616147554e-09  1.5652979278485439e-10  -3.0002107878209980e-11  7.8084350355349002e-14  -2.5920642489195672e-08  -1.4237182741007908e-08  -1.7708270183076681e-08  8.3636238015897771e-09  6.9001847054371881e-10  -1.1066728133799270e-08  -1.0643465038117614e-11  1.0804702426909037e-08  -9.0064047656033979e-09  2.3235347811434993e-12  5.0534674972822065e-12  -1.5174045313026282e-11  1.1237246627434021e-10  9.5257685762294175e-12  -7.5309674614711306e-12  -1.0533244088593725e-10  1.8096022922018594e-12  -4.7661222534351420e-11  1.1900668784826689e-09  1.8974022064924515e-08  5.0895932628435439e-15  5.4149457536832966e-15  2.1078600031039802e-08  -1.2125086396216660e-11  1.3887675351259890e-13  1.9607657409873697e-08  -1.6390269351866449e-08  -1.1123505625319037e-13  -2.7211450931756060e-08  -1.0500869226155814e-13  -1.8032931527652054e-11  3.8192953312623364e-15  8.6538485284779108e-11  1.1227372070427512e-11  -4.1307275360166577e-14  -6.8543435830360331e-12  -1.1441364059216034e-08  -9.9601232199958335e-11  1.8683368798164441e-08  1.1700696320793592e-15  -6.8889263629203129e-15  -4.9685640065916374e-12  2.7184153875246066e-13  2.3522087018064348e-13  3.3829223628425460e-11  9.1330214481974033e-14  1.3843326484916047e-09  5.6800471567445838e-09  5.8229540483411289e-14  -2.8904544254554838e-08  9.5566329477053528e-12  -1.1006377092823346e-12  -6.3730961650151943e-12  1.5867497733240690e-10  -1.3109180623072345e-08  -5.7617233314613037e-14  -3.6964966924380017e-16  -8.8582959211251494e-13  -5.3994571632677449e-13  2.0362630507437126e-08  -2.5508644094138616e-08  -1.8500380774296568e-13  1.7582878699211613e-12  6.3433946054348020e-14  2.1824444425097136e-08  7.5569846100352213e-12  1.9223789038444946e-09  1.4440977593513562e-12  9.0440192594951841e-12  -3.9048369075874730e-11  -3.0360654440002016e-08  1.0025999617175830e-11  5.3932423935681896e-12  -3.5330167326156280e-08  7.5051478775239428e-14  -1.1572558257539745e-11  -3.8694280896082799e-11  8.4017030809071836e-09  -7.9294315074303135e-11  -4.9376593726630689e-10  -8.4864528952889287e-11  5.2498662923958789e-11  1.5432948003654054e-08  -1.5196347734216814e-10  -1.6199573242193844e-08  8.2545459713211200e-11  -3.5426094036764584e-12  -7.8736809828206920e-09  9.4640924417170419e-09  -7.4648196297637215e-11  -4.2388492612399156e-08  2.9717040903671379e-12  1.5047238524755996e-12  2.5580223163697015e-08  -2.4746912865929054e-10  5.2101744521419708e-11  2.8439021500695961e-11  -9.0593021274073365e-14  8.5319599166659358e-11  4.1268757531614159e-08  -2.9566784824316666e-09  1.0102319911258089e-14  5.3139562563611675e-12  1.2607755210253540e-10  2.6297158916470112e-08  6.9222620645985283e-09  -6.2458411953914327e-09  1.4962782419033326e-12  -7.3725053616773909e-12  8.1327337178953547e-09  4.8353015853343397e-12  2.4757640249038545e-09  -2.8360498138679820e-12  4.4768847130277939e-11  7.9866254711359448e-09  -1.0696855213698568e-10  -7.8143062803398108e-11  2.8548552016179575e-12  1.4716000276605675e-11  -4.0293093679929418e-13  4.4482756082774518e-13  -9.4313660231457722e-12  -1.3742107526683097e-10  1.8906935042303433e-10  3.5540669886424186e-11  2.4529085560269941e-08  3.7300031818675062e-08  -4.0138298544721754e-08  -1.8861244409446248e-08  -1.7681808647454066e-08  5.9655562590451198e-10  1.5022804873046601e-11  -3.7195891376740155e-09  3.5071339768591464e-09  -1.5088530403661471e-15  -1.3980370402183927e-11  5.0019303793775395e-09  -1.5595917220530143e-08  1.1598484581225490e-07  -1.8146889422325727e-12  -6.7544443607065608e-09  4.9602353497524511e-10  4.3744104755092106e-11  -3.0939969370466884e-10  -1.5497488730047661e-11  4.0631582185578835e-12  -7.2374767436697245e-11  -7.6454401593045337e-15  2.6464110189932546e-10  1.5814507872526786e-12  -3.4202495382813101e-14  -1.5740073040924642e-13  -2.4318189884643180e-11  2.6442625854839563e-15  4.4596467900550955e-12  2.7780741265543937e-09  1.4001456621132594e-13  -1.1784066492922827e-07  4.8076273708065788e-14  6.2310431772430302e-14  1.1416278526644017e-10  1.9899168975796884e-12  -9.0342520742049695e-15  6.1544195785027776e-09  -3.1672123400517180e-13  2.4809386305501959e-10  -4.7576585027610121e-09  1.8669571769322191e-08  -1.8470136728798349e-07  -4.9590404851660638e-08  8.6532193909868673e-14  3.9591032327940784e-13  1.6184488304963037e-12  -6.0843467703498571e-13  8.6090031006957764e-12  4.1220110699020991e-15  -4.5282436917476542e-11  1.1842661245642132e-11  -3.1235574707447288e-10  5.8672760231167489e-08  -8.1321533972258804e-13  -1.7000464146384690e-07  1.5626894618269071e-07  -4.9540640578107766e-11  -1.0812485711094316e-12  1.5868412126223959e-11  -4.1350382639548983e-10  -3.3173396840207094e-11  6.3048099808059065e-11  -1.9903662991647854e-10  -6.0533198105822128e-11  -7.4200653667581289e-10  2.2150261204978449e-09  -1.1568320493240063e-09  -2.9834859138434113e-11  2.9550546023858480e-12  -5.9240328393841533e-08  -5.0105824082980848e-14  -3.3809818898610098e-08  7.9291802651319909e-13  -8.2238515167097938e-10  2.3295675164488726e-09  9.3310990452951025e-08  1.2816494310553629e-11  -5.4803870517086511e-15  -3.6606197480638924e-09  -5.8282420375393812e-11  9.8198573762321747e-11  -1.7014743521532822e-10  9.6141935633819843e-08  -1.6202217807214703e-09  -4.3688587594317901e-14  9.3719199525215990e-13  -1.7421858404529429e-08  3.1738724474020895e-13  -1.0169345660795284e-10  -7.7408859582306521e-12  -6.3749814196730259e-12  -2.1446366359854111e-11  4.1519858560200405e-08  -2.1434062791107838e-10  1.3360659686491211e-10  -1.1084554365526860e-10  1.4257195169100172e-07  -8.7882367903704309e-08  -1.8069820477340578e-11  -2.2577434278975258e-13  1.7553609861873840e-13  4.6633785285729484e-10  7.9557451616138526e-08  7.5284077399723841e-10  -3.1996689859269237e-10  