<?xml version="1.0"?>
<VTKFile type="UnstructuredGrid"  version="0.1"  >
<UnstructuredGrid>
<Piece  NumberOfPoints="3160" NumberOfCells="5316">
<Points>
<DataArray  type="Float64"  NumberOfComponents="3"  format="ascii">1.25 0 0  1.249623523370255 0.03067653565364036 0  1.248494320256466 0.06133459290927252 0  1.246613070848363 0.09195570449958429 0  1.243980908340246 0.1225214254119508 0  1.240599418248387 0.1530133439990203 0  1.236470637455976 0.1834130930692022 0  1.231597052986177 0.2137023609503765 0  1.225981600504038 0.2438629025201603 0  1.219627662548161 0.2738765501960873 0  1.21253906649318 0.3037252248790798 0  1.2047200822443 0.333390946843623 0  1.196175419665261 0.3628558465680779 0  1.186910225741296 0.3921021754986144 0  1.176930081478776 0.4211123167402751 0  1.166240998543424 0.4498687956687352 0  1.154849415639108 0.4783542904563622 0  1.142762194629413 0.5065516425062373 0  1.129986616404304 0.5344438667878526 0  1.116530376494394 0.5620141620682582 0  1.102401580435444 0.5892459210324971 0  1.087608738885889 0.61612274028723 0  1.07216076250034 0.642628430241527 0  1.056066956562134 0.6687470248588714 0  1.039337015378182 0.6944627912745027 0  1.02198101643948 0.7197602392723067 0  1.004009414350806 0.7446241306155417 0  0.9854330345332579 0.7690394882257835 0  0.9662630667034212 0.7929916052045569 0  0.9465110581331058 0.8164660536922209 0  0.9261889066936989 0.8394486935587729 0  0.9053088536893338 0.8619256809213336 0  0.8838834764831844 0.8838834764831843 0  0.8619256809213337 0.9053088536893337 0  0.8394486935587729 0.9261889066936989 0  0.8164660536922209 0.9465110581331055 0  0.7929916052045569 0.9662630667034212 0  0.7690394882257835 0.9854330345332578 0  0.7446241306155419 1.004009414350806 0  0.7197602392723067 1.02198101643948 0  0.6944627912745028 1.039337015378182 0  0.6687470248588716 1.056066956562134 0  0.642628430241527 1.07216076250034 0  0.6161227402872301 1.087608738885889 0  0.5892459210324973 1.102401580435444 0  0.5620141620682583 1.116530376494394 0  0.5344438667878527 1.129986616404304 0  0.5065516425062373 1.142762194629413 0  0.4783542904563623 1.154849415639108 0  0.4498687956687353 1.166240998543424 0  0.4211123167402751 1.176930081478776 0  0.3921021754986145 1.186910225741296 0  0.3628558465680779 1.196175419665261 0  0.333390946843623 1.2047200822443 0  0.30372522487908 1.21253906649318 0  0.2738765501960872 1.219627662548161 0  0.2438629025201604 1.225981600504038 0  0.2137023609503767 1.231597052986177 0  0.1834130930692022 1.236470637455976 0  0.1530133439990203 1.240599418248387 0  0.122521425411951 1.243980908340246 0  0.09195570449958432 1.246613070848363 0  0.06133459290927266 1.248494320256466 0  0.03067653565364033 1.249623523370255 0  7.654042494670958e-17 1.25 0  -0.03067653565364018 1.249623523370255 0  -0.06133459290927251 1.248494320256466 0  -0.09195570449958416 1.246613070848363 0  -0.1225214254119508 1.243980908340246 0  -0.1530133439990202 1.240599418248387 0  -0.1834130930692021 1.236470637455976 0  -0.2137023609503766 1.231597052986177 0  -0.2438629025201602 1.225981600504038 0  -0.2738765501960871 1.219627662548161 0  -0.3037252248790798 1.21253906649318 0  -0.3333909468436229 1.2047200822443 0  -0.3628558465680777 1.196175419665261 0  -0.3921021754986143 1.186910225741296 0  -0.4211123167402749 1.176930081478776 0  -0.4498687956687352 1.166240998543424 0  -0.4783542904563621 1.154849415639108 0  -0.5065516425062372 1.142762194629413 0  -0.5344438667878524 1.129986616404304 0  -0.5620141620682584 1.116530376494394 0  -0.5892459210324972 1.102401580435444 0  -0.61612274028723 1.087608738885889 0  -0.642628430241527 1.07216076250034 0  -0.6687470248588713 1.056066956562134 0  -0.6944627912745025 1.039337015378182 0  -0.7197602392723067 1.02198101643948 0  -0.7446241306155417 1.004009414350806 0  -0.7690394882257834 0.9854330345332579 0  -0.7929916052045567 0.9662630667034213 0  -0.8164660536922207 0.9465110581331059 0  -0.8394486935587731 0.9261889066936988 0  -0.8619256809213337 0.9053088536893337 0  -0.8838834764831843 0.8838834764831844 0  -0.9053088536893334 0.8619256809213338 0  -0.9261889066936986 0.8394486935587732 0  -0.9465110581331058 0.8164660536922208 0  -0.9662630667034212 0.7929916052045569 0  -0.9854330345332578 0.7690394882257836 0  -1.004009414350806 0.7446241306155419 0  -1.02198101643948 0.7197602392723068 0  -1.039337015378182 0.6944627912745027 0  -1.056066956562134 0.6687470248588714 0  -1.07216076250034 0.6426284302415273 0  -1.087608738885889 0.6161227402872302 0  -1.102401580435444 0.5892459210324973 0  -1.116530376494394 0.5620141620682586 0  -1.129986616404304 0.5344438667878525 0  -1.142762194629413 0.5065516425062374 0  -1.154849415639108 0.4783542904563624 0  -1.166240998543424 0.4498687956687354 0  -1.176930081478776 0.4211123167402754 0  -1.186910225741296 0.3921021754986143 0  -1.196175419665261 0.362855846568078 0  -1.2047200822443 0.3333909468436231 0  -1.21253906649318 0.3037252248790801 0  -1.219627662548161 0.2738765501960876 0  -1.225981600504038 0.2438629025201608 0  -1.231597052986177 0.2137023609503765 0  -1.236470637455976 0.1834130930692023 0  -1.240599418248387 0.1530133439990204 0  -1.243980908340246 0.122521425411951 0  -1.246613070848363 0.09195570449958466 0  -1.248494320256466 0.06133459290927246 0  -1.249623523370255 0.03067653565364041 0  -1.25 1.530808498934192e-16 0  -1.249623523370255 -0.0306765356536401 0  -1.248494320256466 -0.06133459290927215 0  -1.246613070848363 -0.09195570449958437 0  -1.243980908340246 -0.1225214254119507 0  -1.240599418248387 -0.1530133439990201 0  -1.236470637455976 -0.183413093069202 0  -1.231597052986177 -0.2137023609503762 0  -1.225981600504038 -0.2438629025201605 0  -1.219627662548161 -0.2738765501960873 0  -1.21253906649318 -0.3037252248790798 0  -1.2047200822443 -0.3333909468436228 0  -1.196175419665261 -0.3628558465680776 0  -1.186910225741296 -0.392102175498614 0  -1.176930081478776 -0.4211123167402752 0  -1.166240998543424 -0.4498687956687352 0  -1.154849415639108 -0.4783542904563621 0  -1.142762194629413 -0.5065516425062371 0  -1.129986616404304 -0.5344438667878523 0  -1.116530376494394 -0.5620141620682583 0  -1.102401580435444 -0.5892459210324971 0  -1.087608738885889 -0.6161227402872299 0  -1.07216076250034 -0.6426284302415269 0  -1.056066956562134 -0.6687470248588712 0  -1.039337015378182 -0.6944627912745025 0  -1.02198101643948 -0.7197602392723067 0  -1.004009414350806 -0.7446241306155416 0  -0.9854330345332579 -0.7690394882257834 0  -0.9662630667034213 -0.7929916052045566 0  -0.946511058133106 -0.8164660536922207 0  -0.9261889066936989 -0.8394486935587731 0  -0.9053088536893338 -0.8619256809213336 0  -0.8838834764831847 -0.8838834764831843 0  -0.8619256809213338 -0.9053088536893334 0  -0.8394486935587733 -0.9261889066936986 0  -0.8164660536922214 -0.9465110581331053 0  -0.7929916052045574 -0.9662630667034209 0  -0.7690394882257841 -0.9854330345332574 0  -0.7446241306155414 -1.004009414350806 0  -0.7197602392723066 -1.02198101643948 0  -0.6944627912745027 -1.039337015378182 0  -0.6687470248588716 -1.056066956562134 0  -0.6426284302415273 -1.07216076250034 0  -0.6161227402872302 -1.087608738885889 0  -0.5892459210324973 -1.102401580435444 0  -0.5620141620682586 -1.116530376494394 0  -0.5344438667878531 -1.129986616404304 0  -0.506551642506238 -1.142762194629413 0  -0.4783542904563629 -1.154849415639108 0  -0.4498687956687349 -1.166240998543424 0  -0.4211123167402749 -1.176930081478776 0  -0.3921021754986143 -1.186910225741296 0  -0.3628558465680781 -1.196175419665261 0  -0.3333909468436231 -1.2047200822443 0  -0.3037252248790802 -1.21253906649318 0  -0.2738765501960876 -1.219627662548161 0  -0.2438629025201608 -1.225981600504038 0  -0.2137023609503771 -1.231597052986176 0  -0.1834130930692029 -1.236470637455976 0  -0.1530133439990199 -1.240599418248387 0  -0.1225214254119506 -1.243980908340246 0  -0.09195570449958419 -1.246613070848363 0  -0.06133459290927254 -1.248494320256466 0  -0.03067653565364049 -1.249623523370255 0  -2.296212748401287e-16 -1.25 0  0.03067653565364003 -1.249623523370255 0  0.06133459290927207 -1.248494320256466 0  0.09195570449958373 -1.246613070848363 0  0.1225214254119501 -1.243980908340246 0  0.1530133439990195 -1.240599418248387 0  0.1834130930692024 -1.236470637455976 0  0.2137023609503766 -1.231597052986177 0  0.2438629025201604 -1.225981600504038 0  0.2738765501960872 -1.219627662548161 0  0.3037252248790797 -1.21253906649318 0  0.3333909468436227 -1.2047200822443 0  0.3628558465680776 -1.196175419665261 0  0.3921021754986139 -1.186910225741296 0  0.4211123167402745 -1.176930081478776 0  0.4498687956687345 -1.166240998543424 0  0.4783542904563625 -1.154849415639108 0  0.5065516425062375 -1.142762194629413 0  0.5344438667878527 -1.129986616404304 0  0.5620141620682583 -1.116530376494394 0  0.589245921032497 -1.102401580435444 0  0.6161227402872298 -1.087608738885889 0  0.6426284302415269 -1.07216076250034 0  0.6687470248588712 -1.056066956562134 0  0.6944627912745023 -1.039337015378182 0  0.7197602392723061 -1.02198101643948 0  0.7446241306155411 -1.004009414350806 0  0.7690394882257838 -0.9854330345332576 0  0.792991605204557 -0.9662630667034211 0  0.8164660536922209 -0.9465110581331058 0  0.8394486935587729 -0.9261889066936989 0  0.8619256809213336 -0.9053088536893338 0  0.8838834764831842 -0.8838834764831847 0  0.9053088536893333 -0.8619256809213339 0  0.9261889066936986 -0.8394486935587733 0  0.9465110581331053 -0.8164660536922214 0  0.9662630667034209 -0.7929916052045574 0  0.9854330345332574 -0.7690394882257843 0  1.004009414350806 -0.7446241306155416 0  1.02198101643948 -0.7197602392723066 0  1.039337015378182 -0.6944627912745027 0  1.056066956562134 -0.6687470248588716 0  1.07216076250034 -0.6426284302415274 0  1.087608738885889 -0.6161227402872304 0  1.102401580435443 -0.5892459210324974 0  1.116530376494394 -0.5620141620682587 0  1.129986616404304 -0.5344438667878532 0  1.142762194629413 -0.50655164250623
[...]
<PointData  Scalars="f_2430632"> 
<DataArray  type="Float64"  Name="f_2430632"  format="ascii">1.0382284893783840e+00  1.0611128070334548e+00  1.0968045867412508e+00  1.1171517209886555e+00  1.1479076039547875e+00  1.1792660383744025e+00  1.2142180731390797e+00  1.2426116892408559e+00  1.2777843960772106e+00  1.3035247490596804e+00  1.3431533072258615e+00  1.3740439173103303e+00  1.4025841637232359e+00  1.4380560805104938e+00  1.4749228097256639e+00  1.5121016884927030e+00  1.5350362707693295e+00  1.5678325950081458e+00  1.5957424302634153e+00  1.6323741068265580e+00  1.6525875799096783e+00  1.6889965127554873e+00  1.6988955601215918e+00  1.7349134245433555e+00  1.7517050496166142e+00  1.7793486145635546e+00  1.8031029474744957e+00  1.8159502027464207e+00  1.8375014236999525e+00  1.8282478050575020e+00  1.8424651930306559e+00  1.8727641240231512e+00  1.8810440537128359e+00  1.8893788172779287e+00  1.8930360191663769e+00  1.8579548935403494e+00  1.8716815862941893e+00  1.8405531375631146e+00  1.8545222127634560e+00  1.8617067611796090e+00  1.8500733348805116e+00  1.8366150446804661e+00  1.8428389734830852e+00  1.8365504429353829e+00  1.8132211458681331e+00  1.8190777411862422e+00  1.8203322329517317e+00  1.8075635598561564e+00  1.7728865885897420e+00  1.7401456950858201e+00  1.7033849019761031e+00  1.6857069437054177e+00  1.6987804231875430e+00  1.6904352481685510e+00  1.6628830336188387e+00  1.6681619197822961e+00  1.6495620432111235e+00  1.6375046571669132e+00  1.5935562776937560e+00  1.5349526881515645e+00  1.5078888875044871e+00  1.4526932773177015e+00  1.4147772214913994e+00  1.3748567639230020e+00  1.3643738095961544e+00  1.3622399999576538e+00  1.3436225802822446e+00  1.3260735240906321e+00  1.2869882062578009e+00  1.2928990065505674e+00  1.2742497278680951e+00  1.2718287481627288e+00  1.2560355984493270e+00  1.2937258227425537e+00  1.3855258005043884e+00  1.3772848805789282e+00  1.4279956370205764e+00  1.4948256245833007e+00  1.4883940905676571e+00  1.5353800874633172e+00  1.5780986187545949e+00  1.6138607724804206e+00  1.6653578414971502e+00  1.7476165851840313e+00  1.7807147784782351e+00  1.8040277773426041e+00  1.8721024831300519e+00  1.9645685644474753e+00  2.0556109466715990e+00  2.0173508048205977e+00  1.9693519007175555e+00  2.1057774832064093e+00  2.2405354525013337e+00  2.2430185756615280e+00  2.3086506730136560e+00  2.3358375719774238e+00  2.4310865291129424e+00  2.4843360866787658e+00  2.5548869511352401e+00  2.6078823021286950e+00  2.6521042379567747e+00  2.6814108465993196e+00  2.7083007594154398e+00  2.7420953861024167e+00  2.7541247756856584e+00  2.7397216885215330e+00  2.7368204328545938e+00  2.7276182209283637e+00  2.7054611342719057e+00  2.6453140092402130e+00  2.6118342254725988e+00  2.6011488129431122e+00  2.5595999692048022e+00  2.5280308639424116e+00  2.4922020363292670e+00  2.4392020431310488e+00  2.3716570297229120e+00  2.3071064506395786e+00  2.2263620079537030e+00  2.1359899869373482e+00  2.0413010831417235e+00  1.9446892520613142e+00  1.8435683867120929e+00  1.7445033302783886e+00  1.6343022454863287e+00  1.5286252313753586e+00  1.4374633777606181e+00  1.3344515349692909e+00  1.2390524673667651e+00  1.1450921782479864e+00  1.0567182221827587e+00  9.8052095777257264e-01  9.1368841806690793e-01  8.3706105518914165e-01  7.8136262870658990e-01  7.2532120499791175e-01  6.8169944403033989e-01  6.4839102110233737e-01  6.1668388571176125e-01  5.9857667816224536e-01  5.8816337552849485e-01  5.8741685045573366e-01  5.9477804747916962e-01  6.0965157821092575e-01  6.3123901012801786e-01  6.5619396223854631e-01  6.8547269334932859e-01  7.1411997158067098e-01  7.5793136096149505e-01  7.9311404729629242e-01  8.2741150068767910e-01  8.6445051699789077e-01  8.9809917734448619e-01  9.3806927666426432e-01  9.7904323070881649e-01  1.0190296560837333e+00  1.0590307562704033e+00  1.0940621837943256e+00  1.1320725271037553e+00  1.1634225070856188e+00  1.1996718094056404e+00  1.2305278970624691e+00  1.2605111623084202e+00  1.2946494327074778e+00  1.3209051690388947e+00  1.3496047456983571e+00  1.3799289230212404e+00  1.4111221914171799e+00  1.4359363488176078e+00  1.4575320214063650e+00  1.4678144562085924e+00  1.4872948665503525e+00  1.5099109741234973e+00  1.5135744733665002e+00  1.5353682475514012e+00  1.5620650072064379e+00  1.5635959731385858e+00  1.5786502895282477e+00  1.5943224283076978e+00  1.6040515153137636e+00  1.6080419306156717e+00  1.6096229079181177e+00  1.6237319448984628e+00  1.6045047687376310e+00  1.6356583853865796e+00  1.6239558352678900e+00  1.6105015728403373e+00  1.6194282377774720e+00  1.6034293271436149e+00  1.5935336179152200e+00  1.5559867043628508e+00  1.5751541050485156e+00  1.5369946831356687e+00  1.5217129556019742e+00  1.4997565849262178e+00  1.4807834863877063e+00  1.4433020215758625e+00  1.4151213371214177e+00  1.3867845112654418e+00  1.3585243147868484e+00  1.3462652667501802e+00  1.3235918216538138e+00  1.2939421903162951e+00  1.2555251328383796e+00  1.2362500406835397e+00  1.2059725810723418e+00  1.1623648078834663e+00  1.1421068759335056e+00  1.1093642383621847e+00  1.0714544094053691e+00  1.0536080966433898e+00  1.0434628835972937e+00  9.9451180965510333e-01  9.6745673526863529e-01  9.3785124049277679e-01  9.1752259438794725e-01  8.8324759021366694e-01  8.7961270563704164e-01  8.6018887943832423e-01  8.2693679120867736e-01  8.2308562781423422e-01  7.8008757904277259e-01  7.5927737946344009e-01  7.5588218753694925e-01  7.4698568576140345e-01  7.3167558843982161e-01  7.1745443462255820e-01  7.2367299569950705e-01  7.1690090390637318e-01  6.8529727001152763e-01  6.8105344751993013e-01  6.8282237023333092e-01  6.9038496210154499e-01  6.8950304909362359e-01  7.0761679448672576e-01  7.1092090749146564e-01  7.1275183415936516e-01  6.9244062569998521e-01  7.0828084181377582e-01  7.0926301507738920e-01  7.2908148279326535e-01  7.3136998577100898e-01  7.4003521051692567e-01  7.6009885187708415e-01  7.7001717728607189e-01  7.8813292714840943e-01  8.0507438109732066e-01  8.2961410177727191e-01  8.4441998215393721e-01  8.6616444868545528e-01  8.9578385435964436e-01  9.0547669575668233e-01  9.3616248177211558e-01  9.4669508285830373e-01  9.8442625573717868e-01  1.0104861930467013e+00  9.4237295540039889e-01  9.8999420465569998e-01  1.0264978966812757e+00  1.0757271793662950e+00  1.1333507951964177e+00  1.1989978859813413e+00  1.2513126752426555e+00  1.3067064453399357e+00  1.3646472783868335e+00  1.4311159258982022e+00  1.4905114999258311e+00  1.5497069127294332e+00  1.6179038614582324e+00  1.6905848539838000e+00  1.7570693833484181e+00  1.8251555304418288e+00  1.8883302153655321e+00  1.9483146512028326e+00  2.0261003230570998e+00  2.0991507950324988e+00  2.1609518228054339e+00  2.2284598811854881e+00  2.3027388793815642e+00  2.3793829086671074e+00  2.4410841107376378e+00  2.5023170097697744e+00  2.5522504803185257e+00  2.6242872757605871e+00  2.6702472195297142e+00  2.7293660082891917e+00  2.8062584757415894e+00  2.8716094582126801e+00  2.9141287386399073e+00  2.9533981276000238e+00  3.0148472825313428e+00  3.0511772070800771e+00  3.0870417086267556e+00  3.1240667428675559e+00  3.1638605647178042e+00  3.2085172846288308e+00  3.2449868807569784e+00  3.2536489747637245e+00  3.2516487050233911e+00  3.2517237928346887e+00  3.2844631375100231e+00  3.3319307313638338e+00  3.3861402249158790e+00  3.4066675278270919e+00  3.4117574801563313e+00  3.4071565700522140e+00  3.3956699699892061e+00  3.3686513729811498e+00  3.3614441220236966e+00  3.3691320076609754e+00  3.3562062685683798e+00  3.3580507444534944e+00  3.3331427915061869e+00  3.3157251451118079e+00  3.2829395360555753e+00  3.2333583270334381e+00  3.1800352954820905e+00  3.1282940227993947e+00  3.0451601573838625e+00  2.9959154337148219e+00  2.9607072130604792e+00  2.9439759240591123e+00  2.9353466679319964e+00  2.9231959166410961e+00  2.8672014455228712e+00  2.8190862725772829e+00  2.7417641052348731e+00  2.6583367340082740e+00  2.5994415413604974e+00  2.5642744794136956e+00  2.5369238205816536e+00  2.5115007063317467e+00  2.4367521890822461e+00  2.3955578859933886e+00  2.3301041769583386e+00  2.2832559384933786e+00  2.2034275902577631e+00  2.1440915486607222e+00  2.0915841721885453e+00  2.0004246225307787e+00  1.9403580052528315e+00  1.8749905820666997e+00  1.8021357744159072e+00  1.7283780750313547e+00  1.6551995831975701e+00  1.6005752522449979e+00  1.5311801255153390e+00  1.4599393237867853e+00  1.3937320076076214e+00  1.3183772065017538e+00  1.2604383424741670e+00  1.2111337964921023e+00  1.1503899942773448e+00  1.1051619305320688e+00  1.0549311067011335e+00  1.0054816710234180e+00  9.5795852011662352e-01  9.1344733449505111e-01  8.6725908006407559e-01  8.3028203345226004e-01  7.9161033242446377e-01  7.5948406385514045e-01  7.3056358683328437e-01  6.9871750744858108e-01  6.7579612932502175e-01  6.5639022556071724e-01  6.4069116580051000e-01  6.1979320447217467e-01  6.0657613738465754e-01  6.0819043611423818e-01  6.1147783583201121e-01  6.2048341839943766e-01  6.3601321268938782e-01  6.5827560584540989e-01  6.8125810614426230e-01  7.1190771755977855e-01  7.4373360950805611e-01  7.8388231227796257e-01  8.2754539698111496e-01  8.7658809575317331e-01  9.3359564526923433e-01  9.8814357249344720e-01  1.0399388633763882e+00  1.1054432445679472e+00  1.1809241672070889e+00  1.2492426846237150e+00  1.3301322018526582e+00  1.4005892298043021e+00  1.4767596822583138e+00  1.5540624613741540e+00  1.6328657870847834e+00  1.7135918314547258e+00  1.7955110247447090e+00  1.8834480995217879e+00  1.9574214805603276e+00  2.0404470819016107e+00  2.1110530985664844e+00  2.1909376459290608e+00  2.2674391259644064e+00  2.3352328688794648e+00  2.4126817775897047e+00  2.4860654466493171e+00  2.5486395458011328e+00  2.6132908564328456e+00  2.6935020725793386e+00  2.7844343352371639e+00  2.8465989218901915e+00  2.9023923939854517e+00  2.9549074815131027e+00  3.0185991990336176e+00  3.0833514555865089e+00  3.1397432925484501e+00  3.1860358080541382e+00  3.2208786494385375e+00  3.2483059680805444e+00  3.3055221784078452e+00  3.3467370710515341e+00  3.3789178094751748e+00  3.4049707340454507e+00  3.4233047655616344e+00  3.4388803848133951e+00  3.4471600126687272e+00  3.4670883944722655e+00  3.5131133071170928e+00  3.5149384493380955e+00  3.5090250362695987e+00  3.5284726917145379e+00  3.5625203974286546e+00  3.6073571613057376e+00  3.5748011907874213e+00  3.5197282784603927e+00  3.5180370928497671e+00  3.5566345950115901e+00  3.5772180913686671e+00  3.5149468102851573e+00  3.4614746484442938e+00  3.4421238156547664e+00  3.4246476709357254e+00  3.3437093636701012e+00  3.3235463148829467e+00  3.3122993821217941e+00  3.2911830131581521e+00  3.2558725846247887e+00  3.2152878045978048e+00  3.2004623311566580e+00  3.1350169129159138e+00  3.1205702187991662e+00  3.1458579591657667e+00  3.0906423789658075e+00  3.0625615970536741e+00  3.0140339015643223e+00  2.9305306692760302e+00  2.9068754417191283e+00  2.8641147392874253e+00  2.8120585819107164e+00  2.7273330712323323e+00  2.6784422980465510e+00  2.6222722114766293e+00  2.5445861888436050e+00  2.4852361328098609e+00  2.4203416763656258e+00  2.3487419719205977e+00  2.2761395137515779e+00  2.2230064508254754e+00  2.1507568763542575e+00  2.0795690279348902e+00  2.0097597573527111e+00  1.9400448367088534e+00  1.8674799482937050e+00  1.7911214021153836e+00  1.7117153933818039e+00  1.6476711373194204e+00  1.5732804516662426e+00  1.4944288013618501e+00  1.4326250725580274e+00  1.3735720474611131e+00  1.3153043588399365e+00  1.2537521973184689e+00  1.1971682258168896e+00  1.1445746614565115e+00  1.0859002812532084e+00  1.0297474979074122e+00  9.8009026598412374e-01  9.2322850885916208e-01  8.7887483808649991e-01  8.3335078940337048e-01  7.9600411474774557e-01  7.6058360550971138e-01  7.3664861250377145e-01  7.0469022199254139e-01  6.7625552797793764e-01  6.5506455686975318e-01  6.3707171931518358e-01  6.2283863174282672e-01  6.0879876997560467e-01  5.9725259214635484e-01  5.9023745183764464e-01  5.8851664804772963e-01  5.8451762545405361e-01  5.8792740598768400e-01  5.9642517057576538e-01  6.0868635897474055e-01  6.2521877345224297e-01  6.4753055383574520e-01  6.6866458402383466e-01  6.9197543434776887e-01  7.1664759254502786e-01  7.4342386162238183e-01  7.7560471529491459e-01  8.1326463608429755e-01  8.4926176324511915e-01  8.9406408745275512e-01  1.1435257070980738e+00  9.8180489052097297e-01  1.3301389804565158e+00  8.8715765943188962e-01  1.5051386804638152e+00  8.6502154402864617e-01  1.6300311374152290e+00  8.7656254560637736e-01  1.7825400350118461e+00  9.7824951599564647e-01  1.8709737072766195e+00  1.1117059363022044e+00  1.9661001324584526e+00  1.2732956946008016e+00  2.0084736824407359e+00  1.4651921312908782e+00  2.0290360132649656e+00  1.6607811642755350e+00  1.2683918818386621e+00  2.0406214243294287e+00  1.2992231663204374e+00  1.2633465625698215e+00  1.2284503822749624e+00  9.0930801838835584e-01  1.4822627439851526e+00  1.1886764039052085e+00  7.4605707284194744e-01  1.8704993459891441e+00  1.1673139502002308e+00  1.2491264822244914e+00  6.9388683507943294e-01  2.0734702817615069e+00  1.8081281080384304e+00  1.1915079105327488e+00  1.2285901515790683e+00  7.3291086375576620e-01  2.0676775747289771e+00  1.2780324266207495e+00  2.0160254414951977e+00  1.3612042371414221e+00  1.1364424651791190e+00  1.0183448848480903e+00  1.1907103988334509e+00  1.3318251665651792e+00  1.3826960142179203e+00  8.8420285059473436e-01  2.2509467140587702e+00  1.9315085227842066e+00  1.0599414346651843e+00  1.3860725292440650e+00  1.0485981150648220e+00  2.1673372082144455e+00  1.4020331075213668e+00  1.2383169479883587e+00  1.6559478220031878e+00  1.3392217071862507e+00  1.8836279387509083e+00  1.3898494016830649e+00  1.1053591867024575e+00  2.2785878478765733e+00  1.1088215117139786e+00  8.0771994055679253e-01  6.9127768912766108e-01  2.4585032444410682e+00  6.9027161772444889e-01  8.0581986092697000e-01  1.2624132098840009e+00  1.4799539613085182e+00  2.3558125558186993e+00  1.3658752949115454e+00  1.8009378035225598e+00  2.0416943946306314e+00  1.3800645396307876e+00  2.5214976127062450e+00  1.2110884525082011e+00  2.5119755997063455e+00  2.4696680749100066e+00  9.3864163492060404e-01  1.2511949445039672e+00  1.3395118844414136e+00  1.2717150475521914e+00  1.6458098691730378e+00  1.3099142007555995e+00  1.3152139681721646e+00  1.0378725122037942e+00  1.7119993136700129e+00  2.6418515072092821e+00  1.6936138537899412e+00  8.4717502637054298e-01  1.3515467182243630e+00  1.0401358850290519e+00  1.5775425578479789e+00  2.6792319516165253e+00  1.3939914540190721e+00  2.6170185817448428e+00  1.3198147255810226e+00  1.4376646115612859e+00  1.6732925325711447e+00  1.6339952339204538e+00  8.7555067335153580e-01  1.6234479813784248e+00  1.2495726974027594e+00  1.4196950231314067e+00  1.1575601496463168e+00  1.9675086958113526e+00  9.4165809228297170e-01  1.0694542504108937e+00  9.7775085611879409e-01  2.5360568525705784e+00  1.5018582793049278e+00  1.0303899134571506e+00  1.1143213658019171e+00  1.3236256261686450e+00  2.7167606407754117e+00  1.6892033784281255e+00  1.1468348142378704e+00  1.0082861019316804e+00  1.3218503353352060e+00  1.5271786228905433e+00  2.7432394100000463e+00  2.2348577224514043e+00  1.4611737931814117e+00  1.2311992283178359e+00  1.4756950518720395e+00  1.4524768616283426e+00  2.7059898103311744e+00  1.5265131198302164e+00  1.2538391944652654e+00  1.2909352790241002e+00  9.3305699730499803e-01  8.2258614212927617e-01  1.5860112140783584e+00  1.4206346667681404e+00  1.5845845608593765e+00  9.1554132970291136e-01  2.5325038156398110e+00  1.1009795841380061e+00  1.2610889580142395e+00  2.8312529373276614e+00  1.7545794325462558e+00  8.7958247314569094e-01  9.0003941071417470e-01  1.8804693156154917e+00  1.5149384973752880e+00  7.1641931351808319e-01  6.6520949108199134e-01  1.2027413756828262e+00  1.5349339443966288e+00  1.0612890938539137e+00  1.8765265028946623e+00  1.1264673297215848e+00  1.5409291399235725e+00  1.2954398892434544e+00  1.7637515614650459e+00  1.0676677794981624e+00  1.1612911221701363e+00  1.6414033366568732e+00  1.3544423014217497e+00  9.2697855530579043e-01  9.0096586462112782e-01  1.3324798110843898e+00  1.3685729883445421e+00  1.9192007613627242e+00  1.9169097123978101e+00  2.0197697803277546e+00  8.3938761537947959e-01  6.4140580727793295e-01  6.4690441893669615e-01  1.3393016037281156e+00  1.2673640215940112e+00  1.6602749669013179e+00  9.1586082335316865e-01  1.1684547452179554e+00  1.7376155453591546e+00  1.4378278406955631e+00  2.4484735273987179e+00  1.5442780048635585e+00  9.5297261151134172e-01  1.8204932395441695e+00  2.5991938949641451e+00  1.0185102090088567e+00  1.0196334317043159e+00  1.6520326582024820e+00  7.6192670059701406e-01  7.0602122215171337e-01  1.5445251634728694e+00  7.8869610166229775e-01  2.3675882105345698e+00  2.2572629963283171e+00  2.4356085270409857e+00  2.9566525472051222e+00  1.7278655106587777e+00  1.5433060012928468e+00  2.0475853613091424e+00  8.9761479028281876e-01  9.9859202182931273e-01  1.0378497414730192e+00  2.0895573621299572e+00  1.3920963162770519e+00  1.4245199520081813e+00  1.2989699912988000e+00  7.8177947985686047e-01  9.0169089360744159e-01  1.3309277483664048e+00  1.9218291634463938e+00  7.4472234670637338e-01  1.3181619425211359e+00  1.8947376324193610e+00  1.3526693036145045e+00  1.3600573032000256e+00  2.5883788295188457e+00  2.6844439318254198e+00  1.5230880552792250e+00  1.5364494809501037e+00  1.2044548291394097e+00  1.6960155690237999e+00  2.0543414019984714e+00  7.8815292170002282e-01  1.0676686122606394e+00  3.0050604227244295e+00  8.3377071246722412e-01  1.1379818010245168e+00  1.1425071617312985e+00  1.9462426377725051e+00  1.3680842544499534e+00  1.1552072017492925e+00  1.5142598790955235e+00  1.3749086052919792e+00  7.1997661524534351e-01  2.2679954594948000e+00  1.6809766905500518e+00  1.0001759602026936e+00  7.4964224864899220e-01  9.2772170261384068e-01  1.4055351548319557e+00  1.1665785482455440e+00  1.6433929215183276e+00  1.5620937464523550e+00  1.5339680205375668e+00  1.2228105987554336e+00  2.6122073175961158e+00  1.0946657684643482e+00  6.6631526960186205e-01  1.5601862277937377e+00  9.9699873770325498e-01  1.7706292226942344e+00  2.6132947612024546e+00  9.7868294336189532e-01  2.1889759697851203e+00  1.0756206514818194e+00  2.9042976051479434e+00  1.5527634018426821e+00  3.0398075022159414e+00  1.4565215287075022e+00  8.3333159458524708e-01  1.7619573075170634e+00  1.2219306625752180e+00  1.1882241757230669e+00  1.8701312620127692e+00  2.4737713978825808e+00  1.2927215639629377e+00  1.2339877403336723e+00  1.4900546023872947e+00  1.4803536198920322e+00  1.1290893239676276e+00  1.6020455768584816e+00  3.0096350068258926e+00  2.0416796138389137e+00  2.5403894321279266e+00  1.3457639778970396e+00  1.2390098150063988e+00  2.2564030169213511e+00  2.1703435734892254e+00  1.5300368221153824e+00  2.0532404739308552e+00  1.0724149895241786e+00  1.8007015669307813e+00  1.2177258486984859e+00  2.2874046566336546e+00  1.6023947227830280e+00  1.9618531491618372e+00  1.6521238905684068e+00  1.0739171449158218e+00  2.4497028785502222e+00  1.5248555200838065e+00  8.0022877264219894e-01  9.7240057096440224e-01  3.0294639800327219e+00  1.7124710746882796e+00  1.6642399669622381e+00  2.2783381251491170e+00  1.9817285244598013e+00  1.6915900728125275e+00  9.4522411222230507e-01  2.9100485045973095e+00  1.6805909737446749e+00  2.0208796707559391e+00  1.4069385015317457e+00  6.4800315053980018e-01  2.5992163388318845e+00  2.1037823165419538e+00  1.5121405114551847e+00  1.1650612703313354e+00  1.5819826844926943e+00  2.8474092821276744e+00  8.1896227564801460e-01  1.3001223797279116e+00  1.1061991919914098e+00  1.0315071958602973e+00  2.7469709781902965e+00  1.2179385183546210e+00  1.2641491706691643e+00  1.1741708410309848e+00  8.6308196646330093e-01  1.2965649822547449e+00  2.0288819716806161e+00  9.4547785845541121e-01  1.3528583