<?xml version="1.0"?>
<VTKFile type="UnstructuredGrid"  version="0.1"  >
<UnstructuredGrid>
<Piece  NumberOfPoints="2525" NumberOfCells="4203">
<Points>
<DataArray  type="Float64"  NumberOfComponents="3"  format="ascii">1.25 0 0  1.249623523370255 0.03067653565364036 0  1.248494320256466 0.06133459290927252 0  1.246613070848363 0.09195570449958429 0  1.243980908340246 0.1225214254119508 0  1.240599418248387 0.1530133439990203 0  1.236470637455976 0.1834130930692022 0  1.231597052986177 0.2137023609503765 0  1.225981600504038 0.2438629025201603 0  1.219627662548161 0.2738765501960873 0  1.21253906649318 0.3037252248790798 0  1.2047200822443 0.333390946843623 0  1.196175419665261 0.3628558465680779 0  1.186910225741296 0.3921021754986144 0  1.176930081478776 0.4211123167402751 0  1.166240998543424 0.4498687956687352 0  1.154849415639108 0.4783542904563622 0  1.142762194629413 0.5065516425062373 0  1.129986616404304 0.5344438667878526 0  1.116530376494394 0.5620141620682582 0  1.102401580435444 0.5892459210324971 0  1.087608738885889 0.61612274028723 0  1.07216076250034 0.642628430241527 0  1.056066956562134 0.6687470248588714 0  1.039337015378182 0.6944627912745027 0  1.02198101643948 0.7197602392723067 0  1.004009414350806 0.7446241306155417 0  0.9854330345332579 0.7690394882257835 0  0.9662630667034212 0.7929916052045569 0  0.9465110581331058 0.8164660536922209 0  0.9261889066936989 0.8394486935587729 0  0.9053088536893338 0.8619256809213336 0  0.8838834764831844 0.8838834764831843 0  0.8619256809213337 0.9053088536893337 0  0.8394486935587729 0.9261889066936989 0  0.8164660536922209 0.9465110581331055 0  0.7929916052045569 0.9662630667034212 0  0.7690394882257835 0.9854330345332578 0  0.7446241306155419 1.004009414350806 0  0.7197602392723067 1.02198101643948 0  0.6944627912745028 1.039337015378182 0  0.6687470248588716 1.056066956562134 0  0.642628430241527 1.07216076250034 0  0.6161227402872301 1.087608738885889 0  0.5892459210324973 1.102401580435444 0  0.5620141620682583 1.116530376494394 0  0.5344438667878527 1.129986616404304 0  0.5065516425062373 1.142762194629413 0  0.4783542904563623 1.154849415639108 0  0.4498687956687353 1.166240998543424 0  0.4211123167402751 1.176930081478776 0  0.3921021754986145 1.186910225741296 0  0.3628558465680779 1.196175419665261 0  0.333390946843623 1.2047200822443 0  0.30372522487908 1.21253906649318 0  0.2738765501960872 1.219627662548161 0  0.2438629025201604 1.225981600504038 0  0.2137023609503767 1.231597052986177 0  0.1834130930692022 1.236470637455976 0  0.1530133439990203 1.240599418248387 0  0.122521425411951 1.243980908340246 0  0.09195570449958432 1.246613070848363 0  0.06133459290927266 1.248494320256466 0  0.03067653565364033 1.249623523370255 0  7.654042494670958e-17 1.25 0  -0.03067653565364018 1.249623523370255 0  -0.06133459290927251 1.248494320256466 0  -0.09195570449958416 1.246613070848363 0  -0.1225214254119508 1.243980908340246 0  -0.1530133439990202 1.240599418248387 0  -0.1834130930692021 1.236470637455976 0  -0.2137023609503766 1.231597052986177 0  -0.2438629025201602 1.225981600504038 0  -0.2738765501960871 1.219627662548161 0  -0.3037252248790798 1.21253906649318 0  -0.3333909468436229 1.2047200822443 0  -0.3628558465680777 1.196175419665261 0  -0.3921021754986143 1.186910225741296 0  -0.4211123167402749 1.176930081478776 0  -0.4498687956687352 1.166240998543424 0  -0.4783542904563621 1.154849415639108 0  -0.5065516425062372 1.142762194629413 0  -0.5344438667878524 1.129986616404304 0  -0.5620141620682584 1.116530376494394 0  -0.5892459210324972 1.102401580435444 0  -0.61612274028723 1.087608738885889 0  -0.642628430241527 1.07216076250034 0  -0.6687470248588713 1.056066956562134 0  -0.6944627912745025 1.039337015378182 0  -0.7197602392723067 1.02198101643948 0  -0.7446241306155417 1.004009414350806 0  -0.7690394882257834 0.9854330345332579 0  -0.7929916052045567 0.9662630667034213 0  -0.8164660536922207 0.9465110581331059 0  -0.8394486935587731 0.9261889066936988 0  -0.8619256809213337 0.9053088536893337 0  -0.8838834764831843 0.8838834764831844 0  -0.9053088536893334 0.8619256809213338 0  -0.9261889066936986 0.8394486935587732 0  -0.9465110581331058 0.8164660536922208 0  -0.9662630667034212 0.7929916052045569 0  -0.9854330345332578 0.7690394882257836 0  -1.004009414350806 0.7446241306155419 0  -1.02198101643948 0.7197602392723068 0  -1.039337015378182 0.6944627912745027 0  -1.056066956562134 0.6687470248588714 0  -1.07216076250034 0.6426284302415273 0  -1.087608738885889 0.6161227402872302 0  -1.102401580435444 0.5892459210324973 0  -1.116530376494394 0.5620141620682586 0  -1.129986616404304 0.5344438667878525 0  -1.142762194629413 0.5065516425062374 0  -1.154849415639108 0.4783542904563624 0  -1.166240998543424 0.4498687956687354 0  -1.176930081478776 0.4211123167402754 0  -1.186910225741296 0.3921021754986143 0  -1.196175419665261 0.362855846568078 0  -1.2047200822443 0.3333909468436231 0  -1.21253906649318 0.3037252248790801 0  -1.219627662548161 0.2738765501960876 0  -1.225981600504038 0.2438629025201608 0  -1.231597052986177 0.2137023609503765 0  -1.236470637455976 0.1834130930692023 0  -1.240599418248387 0.1530133439990204 0  -1.243980908340246 0.122521425411951 0  -1.246613070848363 0.09195570449958466 0  -1.248494320256466 0.06133459290927246 0  -1.249623523370255 0.03067653565364041 0  -1.25 1.530808498934192e-16 0  -1.249623523370255 -0.0306765356536401 0  -1.248494320256466 -0.06133459290927215 0  -1.246613070848363 -0.09195570449958437 0  -1.243980908340246 -0.1225214254119507 0  -1.240599418248387 -0.1530133439990201 0  -1.236470637455976 -0.183413093069202 0  -1.231597052986177 -0.2137023609503762 0  -1.225981600504038 -0.2438629025201605 0  -1.219627662548161 -0.2738765501960873 0  -1.21253906649318 -0.3037252248790798 0  -1.2047200822443 -0.3333909468436228 0  -1.196175419665261 -0.3628558465680776 0  -1.186910225741296 -0.392102175498614 0  -1.176930081478776 -0.4211123167402752 0  -1.166240998543424 -0.4498687956687352 0  -1.154849415639108 -0.4783542904563621 0  -1.142762194629413 -0.5065516425062371 0  -1.129986616404304 -0.5344438667878523 0  -1.116530376494394 -0.5620141620682583 0  -1.102401580435444 -0.5892459210324971 0  -1.087608738885889 -0.6161227402872299 0  -1.07216076250034 -0.6426284302415269 0  -1.056066956562134 -0.6687470248588712 0  -1.039337015378182 -0.6944627912745025 0  -1.02198101643948 -0.7197602392723067 0  -1.004009414350806 -0.7446241306155416 0  -0.9854330345332579 -0.7690394882257834 0  -0.9662630667034213 -0.7929916052045566 0  -0.946511058133106 -0.8164660536922207 0  -0.9261889066936989 -0.8394486935587731 0  -0.9053088536893338 -0.8619256809213336 0  -0.8838834764831847 -0.8838834764831843 0  -0.8619256809213338 -0.9053088536893334 0  -0.8394486935587733 -0.9261889066936986 0  -0.8164660536922214 -0.9465110581331053 0  -0.7929916052045574 -0.9662630667034209 0  -0.7690394882257841 -0.9854330345332574 0  -0.7446241306155414 -1.004009414350806 0  -0.7197602392723066 -1.02198101643948 0  -0.6944627912745027 -1.039337015378182 0  -0.6687470248588716 -1.056066956562134 0  -0.6426284302415273 -1.07216076250034 0  -0.6161227402872302 -1.087608738885889 0  -0.5892459210324973 -1.102401580435444 0  -0.5620141620682586 -1.116530376494394 0  -0.5344438667878531 -1.129986616404304 0  -0.506551642506238 -1.142762194629413 0  -0.4783542904563629 -1.154849415639108 0  -0.4498687956687349 -1.166240998543424 0  -0.4211123167402749 -1.176930081478776 0  -0.3921021754986143 -1.186910225741296 0  -0.3628558465680781 -1.196175419665261 0  -0.3333909468436231 -1.2047200822443 0  -0.3037252248790802 -1.21253906649318 0  -0.2738765501960876 -1.219627662548161 0  -0.2438629025201608 -1.225981600504038 0  -0.2137023609503771 -1.231597052986176 0  -0.1834130930692029 -1.236470637455976 0  -0.1530133439990199 -1.240599418248387 0  -0.1225214254119506 -1.243980908340246 0  -0.09195570449958419 -1.246613070848363 0  -0.06133459290927254 -1.248494320256466 0  -0.03067653565364049 -1.249623523370255 0  -2.296212748401287e-16 -1.25 0  0.03067653565364003 -1.249623523370255 0  0.06133459290927207 -1.248494320256466 0  0.09195570449958373 -1.246613070848363 0  0.1225214254119501 -1.243980908340246 0  0.1530133439990195 -1.240599418248387 0  0.1834130930692024 -1.236470637455976 0  0.2137023609503766 -1.231597052986177 0  0.2438629025201604 -1.225981600504038 0  0.2738765501960872 -1.219627662548161 0  0.3037252248790797 -1.21253906649318 0  0.3333909468436227 -1.2047200822443 0  0.3628558465680776 -1.196175419665261 0  0.3921021754986139 -1.186910225741296 0  0.4211123167402745 -1.176930081478776 0  0.4498687956687345 -1.166240998543424 0  0.4783542904563625 -1.154849415639108 0  0.5065516425062375 -1.142762194629413 0  0.5344438667878527 -1.129986616404304 0  0.5620141620682583 -1.116530376494394 0  0.589245921032497 -1.102401580435444 0  0.6161227402872298 -1.087608738885889 0  0.6426284302415269 -1.07216076250034 0  0.6687470248588712 -1.056066956562134 0  0.6944627912745023 -1.039337015378182 0  0.7197602392723061 -1.02198101643948 0  0.7446241306155411 -1.004009414350806 0  0.7690394882257838 -0.9854330345332576 0  0.792991605204557 -0.9662630667034211 0  0.8164660536922209 -0.9465110581331058 0  0.8394486935587729 -0.9261889066936989 0  0.8619256809213336 -0.9053088536893338 0  0.8838834764831842 -0.8838834764831847 0  0.9053088536893333 -0.8619256809213339 0  0.9261889066936986 -0.8394486935587733 0  0.9465110581331053 -0.8164660536922214 0  0.9662630667034209 -0.7929916052045574 0  0.9854330345332574 -0.7690394882257843 0  1.004009414350806 -0.7446241306155416 0  1.02198101643948 -0.7197602392723066 0  1.039337015378182 -0.6944627912745027 0  1.056066956562134 -0.6687470248588716 0  1.07216076250034 -0.6426284302415274 0  1.087608738885889 -0.6161227402872304 0  1.102401580435443 -0.5892459210324974 0  1.116530376494394 -0.5620141620682587 0  1.129986616404304 -0.5344438667878532 0  1.142762194629413 -0.50655164250623
[...]
<PointData  Scalars="f_1945"> 
<DataArray  type="Float64"  Name="f_1945"  format="ascii">-1.5171130269273615e-04  -1.2595986066122719e-04  -9.7300656362451959e-05  -6.2502352510684724e-05  -1.9033665996304355e-05  2.7523598208989855e-05  7.5763825030321865e-05  1.2368937446698868e-04  1.8028880156119512e-04  2.3198532168005334e-04  2.7347033639546172e-04  3.1801234857386715e-04  3.4996969029882520e-04  3.7764008431973934e-04  3.9402132717284637e-04  3.9870821208917197e-04  3.8738862671921836e-04  3.6871393534769107e-04  3.3673129686920386e-04  2.8223987281740027e-04  2.2083187260062373e-04  1.3953453749937701e-04  3.9913714421472185e-05  -6.7484567223959229e-05  -1.8806055527809581e-04  -3.2354276343701848e-04  -4.7500672633348623e-04  -6.2657721150380472e-04  -7.8068971810300793e-04  -9.5666759619868170e-04  -1.1251418207235623e-03  -1.2766639719288496e-03  -1.4406060572152413e-03  -1.5604383571968922e-03  -1.6722860541423298e-03  -1.7661253001054348e-03  -1.7942722899796399e-03  -1.8003507752400773e-03  -1.7257013270307517e-03  -1.6553422594582019e-03  -1.5237467150597608e-03  -1.3135619414941320e-03  -1.0960075374747778e-03  -8.6391790662802468e-04  -5.9813254686948581e-04  -2.3971608996026963e-04  7.3254834093457578e-05  4.3783182367381629e-04  8.7243853491541829e-04  1.2276382330749140e-03  1.5783279645380738e-03  1.9292144488940526e-03  2.2845814228376654e-03  2.4292327652151017e-03  2.5702825817680258e-03  2.5312362768766393e-03  2.4251431145306552e-03  2.2810794820182900e-03  1.9741873568929875e-03  1.5184918480591694e-03  1.0397652025543793e-03  4.7886649321285694e-04  -5.5446814991789398e-05  -7.0966327503825056e-04  -1.2319812581683567e-03  -1.5258041022426080e-03  -1.7658567854811288e-03  -1.6907867349978533e-03  -1.3057230212970225e-03  -6.6663796946979544e-04  -1.3299454518871060e-04  5.7632132482245808e-04  1.3002301795683384e-03  1.3515442145282000e-03  1.3871995678033152e-03  6.5986737028997931e-04  -1.2807164813446949e-04  -1.5078262042179022e-03  -2.7840564243652669e-03  -4.2231748826773528e-03  -5.5077466494856285e-03  -6.1441996795901770e-03  -6.3619120473039324e-03  -5.7137252024415386e-03  -4.7699846532484273e-03  -2.9885815841918409e-03  -6.3702747010838405e-04  1.3786440709613063e-03  3.3931779523497011e-03  4.4895742990180565e-03  4.6771358865889739e-03  3.7187063590636994e-03  1.8633729238298237e-03  -1.9119272038120632e-04  -2.3801006921551258e-03  -4.0123911905011363e-03  -5.1151529130873570e-03  -5.4174697588563825e-03  -4.5727226571145455e-03  -2.4904532610804339e-03  5.8412110383807296e-04  3.5160972162708048e-03  5.5251943311409408e-03  5.4751659461344301e-03  3.4356656653123656e-03  2.3783100507356390e-03  -6.0681078939088987e-05  -6.9588646268842628e-03  -1.9603427309895727e-02  -3.8095283101585206e-02  -6.2301391261120782e-02  -9.1319787855756146e-02  -1.2562101779610976e-01  -1.6358633725784830e-01  -2.0179436053453956e-01  -2.3925964370132549e-01  -2.7205035656556725e-01  -3.0126845919212281e-01  -3.1903162239864891e-01  -3.2542472154049051e-01  -3.2530711773490534e-01  -3.2503292206555418e-01  -3.1708544862183086e-01  -2.9218662341725521e-01  -2.3813625843639855e-01  -1.7409172035769019e-01  -1.1326869227696543e-01  -5.5902276525685538e-02  4.1481553205935542e-06  5.5910037557796777e-02  1.1327600846526223e-01  1.7409838848476239e-01  2.3813970538639206e-01  2.9218713873910990e-01  3.1708586335939554e-01  3.2502828742864504e-01  3.2529467101669501e-01  3.2539924249743662e-01  3.1898721925224116e-01  3.0119653590622153e-01  2.7194081121477204e-01  2.3909906948769080e-01  2.0157347688528451e-01  1.6329616666885910e-01  1.2526110372201557e-01  9.0902682331786638e-02  6.1856113367954470e-02  3.7673249136779899e-02  1.9267353661921460e-02  6.7710730426760518e-03  5.9863748413924089e-05  -2.2132047371599276e-03  -3.1519508299137407e-03  -5.1612600437385379e-03  -5.2556329762330403e-03  -3.3468040417031870e-03  -5.8334318586752303e-04  2.2187882849817654e-03  4.0877050272969751e-03  4.7037241634637333e-03  4.0982409554744925e-03  2.5858687602122424e-03  7.0728759448310404e-04  -1.5315912432493071e-03  -3.5171036968989380e-03  -5.1976095596946150e-03  -5.9687863223784774e-03  -5.6045274422776570e-03  -4.4178389014545381e-03  -2.4119439935544953e-03  -1.7285169050550633e-04  1.8176864163196701e-03  3.3694151830538236e-03  4.5539699564042940e-03  5.0426654432228872e-03  4.7894030472350468e-03  4.1400252172064805e-03  2.9940506679995561e-03  1.6052149565585875e-03  4.0077172423388458e-04  -6.9896736988904094e-04  -1.7125378777296154e-03  -2.2328901331623826e-03  -2.5036449078434087e-03  -2.2837295097637065e-03  -1.6597498295851717e-03  -7.1796614352292955e-04  -3.2228880920716955e-06  8.5373672714060024e-04  1.6410592787949960e-03  2.1620048744644400e-03  2.3815171512416894e-03  2.5326928797078383e-03  2.4634907410711069e-03  2.1863978232271866e-03  1.9961791628294247e-03  1.7473482967742743e-03  1.5010519131612491e-03  1.3228410608971026e-03  1.2726890357146223e-03  1.1879622194532358e-03  1.2701547018385332e-03  1.3350868482024272e-03  1.4892579392048444e-03  1.6542506765479159e-03  1.9031933658746612e-03  2.1204719447392010e-03  2.3274639619592476e-03  2.5436101797663589e-03  2.7342774609262180e-03  2.8072738290669647e-03  2.8947532057250406e-03  2.9011979865000322e-03  2.8130315817506413e-03  2.7004618052545405e-03  2.5409846776620021e-03  2.3442699991336954e-03  2.0985096579333980e-03  1.8401149458551374e-03  1.5894015537496746e-03  1.3264872633858315e-03  1.0305363548600843e-03  7.5338639164192797e-04  5.0754910473747611e-04  2.6975009217664422e-04  1.4314809163617231e-05  -1.7779478894772632e-04  -3.5952654897244377e-04  -5.0907190079692505e-04  -6.3810142418999278e-04  -7.4915844524615200e-04  -8.0114783975472950e-04  -8.4604034358050047e-04  -8.7803618302341143e-04  -8.9394905122481454e-04  -8.7572942666876022e-04  -8.5322406500834590e-04  -8.1329448880693069e-04  -7.6569225548370722e-04  -7.3054599977054498e-04  -6.6404370303660475e-04  -6.0250794339647125e-04  -5.5672678288568489e-04  -4.9618708322513895e-04  -4.4832100036209458e-04  -3.9488252156953695e-04  -3.4978499934115427e-04  -3.2218980024661844e-04  -2.8719961622986257e-04  -2.6721383061482538e-04  -2.4623794058601137e-04  -2.3324938233749211e-04  -2.1578282844305149e-04  -2.0128377247605598e-04  -1.9163699388718226e-04  -1.7129119380101729e-04  -3.8389324489988756e-03  6.6065529092047530e-05  9.9420545035220926e-04  -8.8129410749064184e-04  3.6256042308071726e-03  8.5265664474002967e-03  3.1762706746686475e-03  1.6901985246853533e-03  5.4569309413361102e-03  9.0802188882645601e-03  1.9394147276393975e-03  3.4117969989784377e-03  5.7615535884603828e-03  7.4653269011668612e-03  8.5561530139255260e-03  1.3524905743218348e-02  1.9235003886810455e-02  1.1086133939469082e-02  1.2423395640704375e-02  1.0748186372589676e-02  1.0957087669077737e-02  1.4563847885118334e-02  1.8323608128498706e-02  1.8729121179611043e-02  1.5612511446549968e-02  1.6304061642038445e-02  1.7142489650904799e-02  1.6130738904669581e-02  1.4352841637816477e-02  1.7822531124913891e-02  2.1498948005153930e-02  2.3108238308171727e-02  2.2372306539359864e-02  2.3729472286270595e-02  2.0859221231395771e-02  1.9563400809237890e-02  1.7371856352238296e-02  1.4861275622570010e-02  1.3045476611232230e-02  1.0966935251445863e-02  1.4169711212037661e-02  1.6033864239305494e-02  1.8270980618832103e-02  1.4671960790587331e-02  1.6686432589047534e-02  1.7353176707665091e-02  1.2123703328753010e-02  1.1915441561534163e-02  1.2946416818198430e-02  1.2369519760097430e-02  1.3077745301805180e-02  1.2535259698696139e-02  1.1304885175979582e-02  1.3056015025343521e-02  1.0546723371060628e-02  1.0269508097237531e-02  9.2048033657089884e-03  6.4317091247590198e-03  6.4866988579297992e-03  3.6309245748779432e-03  4.9580256194349743e-04  8.4104609509597333e-04  5.2761663607943658e-04  -1.9689193514361241e-03  -2.5901031947153474e-03  2.2536895965581891e-04  1.0107698600182685e-03  -2.3157299268041598e-03  -3.1019631414969562e-03  -4.6995440568073209e-03  -5.6295739099885131e-03  -4.2583897351085535e-03  -2.5487828716269697e-03  -5.3732226762542917e-03  -5.3170728037200219e-03  -3.6692147372127592e-03  -5.8218752575853834e-03  -1.0024118835233506e-02  -1.0169425668343996e-02  -1.0762042798917426e-02  -1.9044963311080982e-02  -1.7703410451945397e-02  -1.3788838736595997e-02  -1.4541506915518133e-02  -1.5764298291426261e-02  -1.8208959305476329e-02  -1.4812247128697316e-02  -8.1324311361734621e-03  -1.1130354304283368e-02  -1.1028970660583204e-02  -1.2072368432174217e-02  -1.2647729941721029e-02  -1.4594398934840653e-02  -1.4276917266274284e-02  -1.4306784109114495e-02  -1.8160224911971737e-02  -2.1148886865533772e-02  -2.2214569277970057e-02  -2.6685987555153865e-02  -2.6173288010976181e-02  -2.1957264283386853e-02  -1.3483588041394509e-02  -1.1544002571457181e-02  -6.6510252858100445e-03  6.3910632527990638e-04  1.1280575010444683e-02  2.6963255328202169e-02  4.6490346631597332e-02  6.9085784476924775e-02  9.7211005014965129e-02  1.2791613567558796e-01  1.5901401371764906e-01  1.9158196202247121e-01  2.2324611246438728e-01  2.5236822148829646e-01  2.7888829438349738e-01  2.9937311851269166e-01  3.1168667137615924e-01  3.1775902597996530e-01  3.1881365319025085e-01  3.1901850327121439e-01  3.2173977656132369e-01  3.2378187542160225e-01  2.8240714739814221e-01  2.3421012022912591e-01  1.8199996881404723e-01  1.3275472360577648e-01  8.6912815735582308e-02  4.4147491315050878e-02  3.7609692597310831e-06  -4.4140066701123380e-02  -8.6905223472741794e-02  -1.3274761024878007e-01  -1.8199366912415538e-01  -2.3420690271187061e-01  -2.8240502101070841e-01  -3.2378131589385051e-01  -3.2174185599297495e-01  -3.1902596813694772e-01  -3.1882865165878038e-01  -3.1778511199453136e-01  -3.1172771220400686e-01  -2.9943476162014437e-01  -2.7897714796372486e-01  -2.5249193322878477e-01  -2.2341347200605760e-01  -1.9179965053075770e-01  -1.5928812450799804e-01  -1.2824866744090427e-01  -9.7595065437468612e-02  -6.9510513651122305e-02  -4.6931150737810991e-02  -2.7381881459494328e-02  -1.1634458037802170e-02  -8.8392604265527433e-04  6.5494026341452556e-03  1.1595394008913832e-02  1.3676435645013337e-02  2.2045098466860889e-02  2.6344681509908999e-02  2.6847279283111536e-02  2.2422636239247222e-02  2.1804187785049587e-02  1.9117530942989919e-02  1.4169465180766077e-02  1.2418078601758663e-02  1.3875491566147754e-02  1.2725458234604130e-02  1.1566910979201376e-02  9.6805172388026075e-03  9.5403666209790648e-03  6.3358103162699242e-03  1.2999780659163752e-02  1.6218659689347874e-02  1.4908654977515907e-02  1.3780031578569702e-02  1.2968401580133146e-02  1.6450652726766022e-02  1.3212645986988144e-02  6.1117651753433725e-03  8.4516428254882928e-03  9.5723033410022411e-03  4.4760617138945823e-03  3.8108597185637972e-03  4.7485182038422879e-03  3.7604074475084460e-03  2.9053728380368576e-03  4.7900997814089453e-03  5.7040098569160974e-03  -5.7478755575909625e-08  9.3581485407852566e-04  3.5675526280034915e-03  -3.9849117107677796e-04  -1.9083593392792615e-03  2.2558023823775864e-04  6.7071197648434805e-05  -3.7065777592592787e-03  -6.8357852685665341e-03  -5.1769402458699239e-03  -4.2537225978963337e-03  -3.0939536242333677e-03  -7.6882093257215666e-03  -1.0055609573224678e-02  -1.6572148974954549e-02  -1.3376455211483151e-02  -1.0622910368706173e-02  -7.2867413818239034e-03  -8.3430323724574037e-03  -1.2699538983589461e-02  -1.4219382506712744e-02  -1.2448672482830712e-02  -1.4762440524105087e-02  -1.7380910417129903e-02  -1.8438835277536477e-02  -2.1812872984094216e-02  -1.6229572197314086e-02  -1.2308024589207210e-02  -7.0383105399139320e-03  -1.0331502073097423e-02  -1.2490327912627759e-02  -1.8143771434540656e-02  -1.7111594208270742e-02  -1.3538819572165524e-02  -1.3793758132410475e-02  -1.5046978643659640e-02  -1.2655170505844341e-02  -1.0863089142573324e-02  -1.3695241868999697e-02  -1.4697022365829895e-02  -1.6856309964037711e-02  -1.8959078902901910e-02  -1.8140264866625767e-02  -1.8129060095957040e-02  -1.6013943057325824e-02  -1.3356647830550667e-02  -1.1488497234108067e-02  -1.5495564342803785e-02  -1.4979058738762338e-02  -1.6731279955990282e-02  -1.9566329882193353e-02  -1.4858066872680658e-02  -1.1379396064078586e-02  -1.1302682972993246e-02  -1.2895973878090558e-02  -1.1023568046624087e-02  -1.0567482553266963e-02  -1.0096042116667732e-02  -1.0238195283383355e-02  -6.8018667376536623e-03  -1.1626206424323760e-03  -5.6136902043497205e-03  -6.9696361898010824e-03  -1.8933888982781383e-03  -4.5640194674829906e-04  -1.4801178856460216e-03  -3.9768562696662164e-03  -4.8409858150758472e-05  -4.4298179892646695e-08  -8.9442296062533012e-04  7.6914308247241021e-05  -9.4137503660774683e-04  -9.9475193420693608e-04  1.6732564981929518e-04  -5.1623062109469532e-04  7.7767836456632317e-04  7.0444274876851293e-05  8.6411036997305736e-04  -1.3568103068516236e-04  7.1122203646576418e-04  2.1844441763311539e-03  2.5941884953018483e-04  -1.6611178726920102e-03  3.5788456729545031e-03  -5.1309729729351729e-04  1.2532837052590799e-04  2.9132205808601153e-04  -8.6228737556534607e-04  7.1009417539053899e-04  -8.2470047483237420e-04  1.1264268710455092e-03  -8.0371312785778800e-04  -8.7918188619261968e-05  -9.3984508252221608e-04  -9.0596706827548805e-04  -6.5682388386222653e-04  -5.3919700627664570e-04  2.3869368506628061e-04  3.4616806462823034e-04  -1.3673869106737382e-03  -1.6255042359827464e-04  2.0834521134178289e-04  -8.1683175224809266e-04  1.6834660382137093e-03  -2.6046763724833066e-03  -5.6041290788004657e-04  9.7901787835246454e-04  -1.0026557118904083e-03  3.7015127461191040e-04  -1.0235231969861044e-03  3.9265461831183076e-04  1.7429159197409291e-03  1.8108747699819479e-03  -5.5039236490003415e-04  -1.1077573606436333e-04  -6.8285371033263112e-04  2.3779136534889427e-05  -1.9968647545910742e-03  1.3070006311599236e-03  -1.2382054786851419e-03  -8.5823055594806609e-04  2.0455448785347431e-03  5.0906342514502809e-06  -1.6033553478681734e-03  2.4824159252977287e-04  1.1291123928611865e-03  -8.5845274841533762e-04  7.9881909199676457e-04  -6.7856800749385596e-04  1.4862433259473567e-03  1.3567767310563093e-03  -1.8299176404967287e-03  -5.6009464948767589e-05  1.2522298216590152e-03  -7.7949791502595787e-04  2.4318679118260785e-03  1.9607433876726295e-05  1.0703090559014885e-03  -1.7305473329178194e-03  1.0998014615427943e-03  1.8712986504012714e-04  3.4958404086553518e-03  -2.3581970814167772e-04  -4.3864242345028623e-03  -1.0485554808490410e-03  -8.9509862243280700e-04  4.2751805046942280e-04  -9.3723269833073425e-04  6.5567053218831557e-04  9.7018098447655460e-04  1.8297814511905365e-03  2.2008085337073824e-03  -3.9439916084341089e-04  -4.0108079737615404e-04  -8.7774480491548416e-04  3.3102093030844084e-03  -2.7435699924891534e-04  -3.8730956207294425e-04  6.7640501966549367e-04  6.0124010490441606e-04  3.1466305578691807e-04  -2.8892969474686781e-03  1.5183673819384649e-03  2.0157832662987115e-04  -8.9723348426235547e-04  -3.5233283088030755e-04  -1.3518880961874619e-03  9.0218220621832892e-05  -1.1023000040358455e-03  1.8699688492389975e-03  -8.3125664044086652e-04  2.7893178330120694e-03  -1.9380669849275473e-03  1.5281222178483310e-03  2.8415193122814189e-03  -5.3277290644962150e-05  -6.1156157587411212e-04  2.3873470695602488e-04  2.2604246936166442e-04  6.8071109221935064e-05  8.9236604423177635e-04  -6.6991675246451409e-04  -1.2074182558945605e-04  1.5298026941953864e-04  3.9856456836420961e-04  -1.0672912497668621e-03  5.5669231153913218e-04  -6.2390208170147790e-04  -1.0713086908887772e-03  3.5356981275795081e-04  7.9190115534323051e-06  -9.6603470679487399e-04  -1.0481113264895325e-03  -1.0501169891840851e-03  -8.6701218401953519e-04  2.1232514161414473e-03  -3.4111519009341258e-03  -1.5070491387848066e-04  1.2686486904832101e-04  -8.3458263421964723e-04  -1.4698350020046567e-03  -1.5651878944526526e-03  -6.1744578588026852e-04  2.0750266751398295e-04  2.5449038668121796e-03  -1.1239967587781399e-04  -1.2350106270621216e-03  -3.4172080520752495e-04  -2.2088071079802226e-04  -6.5631998423322705e-05  -1.6687081526244724e-04  -5.6677898082563532e-04  -9.5217049329121095e-04  1.9395040728525182e-03  -3.7406945775715151e-04  3.3455969942459433e-06  6.2908405164616838e-04  -2.8718890950483951e-04  -3.0062505930289230e-04  -5.0690488804464072e-04  1.5753174567868000e-04  2.5020933138463527e-04  -9.4268215766252152e-04  1.2866245396944860e-03  -1.7317003037020475e-03  2.7693733998562168e-04  -8.1063514059537300e-04  -5.4388934074588256e-04  -5.9264036977052384e-04  1.7634408936581669e-04  -3.2044087475126243e-04  -2.4821188573535201e-04  -2.8809468342120658e-05  5.8507075827471443e-04  5.0534244818510403e-04  4.8666559635410879e-04  -2.4222651156768499e-03  -3.2301967845776655e-04  -1.1038752023956344e-03  -1.3882912856206992e-03  3.7978756487724303e-03  3.4121250209922620e-03  -4.5601982982817002e-03  1.1270155413402824e-05  7.1287066851963949e-04  -4.2986997586287839e-04  -1.6275949414006786e-03  -1.7576924176748376e-04  -1.5313744500089134e-03  1.9210924847958932e-03  4.9767346693212894e-04  1.8907208209951629e-03  -2.7499064749110253e-03  -1.3202034174739461e-03  -1.0912104642447666e-03  2.3646979778753963e-03  1.7139111475852676e-03  9.3514942778375940e-04  6.6522453551444655e-04  -6.9665009414608692e-04  -3.1233061688430328e-04  1.5919115544871490e-04  1.3004825398029724e-03  -7.5537614046631513e-05  6.1211355533832205e-04  2.2233377652128043e-03  3.0900325890508848e-03  1.1377597662463109e-03  8.3644787586595218e-04  -1.4838314312692813e-03  -1.9065380082722842e-04  -4.2220283989215761e-04  7.6049398982400737e-04  1.1272657190079314e-04  2.5067565677025299e-04  1.7623190708070571e-03  -1.5894812469239678e-03  9.6477561707605851e-04  1.6697600424795528e-03  9.5313322536543139e-04  2.7861497996155272e-05  7.0042896706346393e-04  -1.1805135484248059e-04  2.4338352237325718e-04  3.2845563356043335e-04  5.0878967332914878e-04  2.6883658003999068e-03  2.4145421010711393e-03  7.3747787074438420e-04  -4.2045157511953952e-04  -4.8601344842687472e-04  1.6745151875399670e-03  -4.2609793448453919e-04  -1.6510979290355447e-03  -6.9704849997552823e-04  -7.4488120200755584e-04  -3.2984779730253988e-04  1.3856707326598298e-03  3.9071607164198839e-04  -2.0152157615075143e-04  3.7209932087859055e-04  -1.1533266405775631e-03  4.4932069593883929e-04  -1.5306145490926663e-03  1.7338083518388749e-04  -1.5523736683227143e-03  -8.6688789641353248e-04  -1.0586144796722783e-03  -1.1044430824595716e-03  1.7760159652395753e-03  -1.7600903760755292e-03  3.2005558456288478e-04  1.2604886124621354e-03  1.4030415332846379e-03  -2.5772739270402893e-04  -1.3307627818138577e-03  2.9722655387646335e-04  1.8593433298419503e-03  -3.2993243434304861e-03  1.4110933499470874e-05  -1.3139497881790060e-03  -8.4478459277960731e-04  9.1219074817601854e-04  -1.8077343469893197e-03  1.4052621552899261e-03  2.9058790557738873e-03  1.0603780367249765e-04  -3.5031181008734840e-04  3.1136889806584865e-04  -8.6964823722694807e-05  -1.2136723464880948e-03  2.2601083467302398e-03  5.0772289062978536e-04  -4.9466789238510414e-04  -2.1219379452370858e-04  1.6577375065376240e-04  -5.2806477828260077e-04  -2.3727294173171419e-03  1.5971563222223963e-03  3.1494383760489130e-03  -1.2964671886668327e-04  1.4291270331937582e-03  5.3708917924501906e-05  -2.3549960640614912e-03  1.3329484040548413e-03  1.1518569474463021e-03  -4.4447721899726371e-03  -3.5755651232430265e-05  7.2484001469755430e-04  8.7369036291836964e-05  -7.2369480642858806e-04  2.0150359499860227e-04  -2.9969622068730942e-04  -2.7924573306521038e-04  1.8516554479363096e-03  -3.4601434840580178e-06  -1.0607128270124961e-04  -8.4329034759151645e-04  -3.4449252450306349e-04  1.6459446959000030e-04  1.2135719092153364e-03  -1.3434601167049455e-03  -1.5820471218240732e-04  -3.3046820041339692e-04  4.4039323655600782e-04  -2.0634919453065316e-03  1.5719973281295404e-03  4.378718952