<?xml version="1.0"?>
<VTKFile type="UnstructuredGrid"  version="0.1"  >
<UnstructuredGrid>
<Piece  NumberOfPoints="3160" NumberOfCells="5316">
<Points>
<DataArray  type="Float64"  NumberOfComponents="3"  format="ascii">1.25 0 0  1.249623523370255 0.03067653565364036 0  1.248494320256466 0.06133459290927252 0  1.246613070848363 0.09195570449958429 0  1.243980908340246 0.1225214254119508 0  1.240599418248387 0.1530133439990203 0  1.236470637455976 0.1834130930692022 0  1.231597052986177 0.2137023609503765 0  1.225981600504038 0.2438629025201603 0  1.219627662548161 0.2738765501960873 0  1.21253906649318 0.3037252248790798 0  1.2047200822443 0.333390946843623 0  1.196175419665261 0.3628558465680779 0  1.186910225741296 0.3921021754986144 0  1.176930081478776 0.4211123167402751 0  1.166240998543424 0.4498687956687352 0  1.154849415639108 0.4783542904563622 0  1.142762194629413 0.5065516425062373 0  1.129986616404304 0.5344438667878526 0  1.116530376494394 0.5620141620682582 0  1.102401580435444 0.5892459210324971 0  1.087608738885889 0.61612274028723 0  1.07216076250034 0.642628430241527 0  1.056066956562134 0.6687470248588714 0  1.039337015378182 0.6944627912745027 0  1.02198101643948 0.7197602392723067 0  1.004009414350806 0.7446241306155417 0  0.9854330345332579 0.7690394882257835 0  0.9662630667034212 0.7929916052045569 0  0.9465110581331058 0.8164660536922209 0  0.9261889066936989 0.8394486935587729 0  0.9053088536893338 0.8619256809213336 0  0.8838834764831844 0.8838834764831843 0  0.8619256809213337 0.9053088536893337 0  0.8394486935587729 0.9261889066936989 0  0.8164660536922209 0.9465110581331055 0  0.7929916052045569 0.9662630667034212 0  0.7690394882257835 0.9854330345332578 0  0.7446241306155419 1.004009414350806 0  0.7197602392723067 1.02198101643948 0  0.6944627912745028 1.039337015378182 0  0.6687470248588716 1.056066956562134 0  0.642628430241527 1.07216076250034 0  0.6161227402872301 1.087608738885889 0  0.5892459210324973 1.102401580435444 0  0.5620141620682583 1.116530376494394 0  0.5344438667878527 1.129986616404304 0  0.5065516425062373 1.142762194629413 0  0.4783542904563623 1.154849415639108 0  0.4498687956687353 1.166240998543424 0  0.4211123167402751 1.176930081478776 0  0.3921021754986145 1.186910225741296 0  0.3628558465680779 1.196175419665261 0  0.333390946843623 1.2047200822443 0  0.30372522487908 1.21253906649318 0  0.2738765501960872 1.219627662548161 0  0.2438629025201604 1.225981600504038 0  0.2137023609503767 1.231597052986177 0  0.1834130930692022 1.236470637455976 0  0.1530133439990203 1.240599418248387 0  0.122521425411951 1.243980908340246 0  0.09195570449958432 1.246613070848363 0  0.06133459290927266 1.248494320256466 0  0.03067653565364033 1.249623523370255 0  7.654042494670958e-17 1.25 0  -0.03067653565364018 1.249623523370255 0  -0.06133459290927251 1.248494320256466 0  -0.09195570449958416 1.246613070848363 0  -0.1225214254119508 1.243980908340246 0  -0.1530133439990202 1.240599418248387 0  -0.1834130930692021 1.236470637455976 0  -0.2137023609503766 1.231597052986177 0  -0.2438629025201602 1.225981600504038 0  -0.2738765501960871 1.219627662548161 0  -0.3037252248790798 1.21253906649318 0  -0.3333909468436229 1.2047200822443 0  -0.3628558465680777 1.196175419665261 0  -0.3921021754986143 1.186910225741296 0  -0.4211123167402749 1.176930081478776 0  -0.4498687956687352 1.166240998543424 0  -0.4783542904563621 1.154849415639108 0  -0.5065516425062372 1.142762194629413 0  -0.5344438667878524 1.129986616404304 0  -0.5620141620682584 1.116530376494394 0  -0.5892459210324972 1.102401580435444 0  -0.61612274028723 1.087608738885889 0  -0.642628430241527 1.07216076250034 0  -0.6687470248588713 1.056066956562134 0  -0.6944627912745025 1.039337015378182 0  -0.7197602392723067 1.02198101643948 0  -0.7446241306155417 1.004009414350806 0  -0.7690394882257834 0.9854330345332579 0  -0.7929916052045567 0.9662630667034213 0  -0.8164660536922207 0.9465110581331059 0  -0.8394486935587731 0.9261889066936988 0  -0.8619256809213337 0.9053088536893337 0  -0.8838834764831843 0.8838834764831844 0  -0.9053088536893334 0.8619256809213338 0  -0.9261889066936986 0.8394486935587732 0  -0.9465110581331058 0.8164660536922208 0  -0.9662630667034212 0.7929916052045569 0  -0.9854330345332578 0.7690394882257836 0  -1.004009414350806 0.7446241306155419 0  -1.02198101643948 0.7197602392723068 0  -1.039337015378182 0.6944627912745027 0  -1.056066956562134 0.6687470248588714 0  -1.07216076250034 0.6426284302415273 0  -1.087608738885889 0.6161227402872302 0  -1.102401580435444 0.5892459210324973 0  -1.116530376494394 0.5620141620682586 0  -1.129986616404304 0.5344438667878525 0  -1.142762194629413 0.5065516425062374 0  -1.154849415639108 0.4783542904563624 0  -1.166240998543424 0.4498687956687354 0  -1.176930081478776 0.4211123167402754 0  -1.186910225741296 0.3921021754986143 0  -1.196175419665261 0.362855846568078 0  -1.2047200822443 0.3333909468436231 0  -1.21253906649318 0.3037252248790801 0  -1.219627662548161 0.2738765501960876 0  -1.225981600504038 0.2438629025201608 0  -1.231597052986177 0.2137023609503765 0  -1.236470637455976 0.1834130930692023 0  -1.240599418248387 0.1530133439990204 0  -1.243980908340246 0.122521425411951 0  -1.246613070848363 0.09195570449958466 0  -1.248494320256466 0.06133459290927246 0  -1.249623523370255 0.03067653565364041 0  -1.25 1.530808498934192e-16 0  -1.249623523370255 -0.0306765356536401 0  -1.248494320256466 -0.06133459290927215 0  -1.246613070848363 -0.09195570449958437 0  -1.243980908340246 -0.1225214254119507 0  -1.240599418248387 -0.1530133439990201 0  -1.236470637455976 -0.183413093069202 0  -1.231597052986177 -0.2137023609503762 0  -1.225981600504038 -0.2438629025201605 0  -1.219627662548161 -0.2738765501960873 0  -1.21253906649318 -0.3037252248790798 0  -1.2047200822443 -0.3333909468436228 0  -1.196175419665261 -0.3628558465680776 0  -1.186910225741296 -0.392102175498614 0  -1.176930081478776 -0.4211123167402752 0  -1.166240998543424 -0.4498687956687352 0  -1.154849415639108 -0.4783542904563621 0  -1.142762194629413 -0.5065516425062371 0  -1.129986616404304 -0.5344438667878523 0  -1.116530376494394 -0.5620141620682583 0  -1.102401580435444 -0.5892459210324971 0  -1.087608738885889 -0.6161227402872299 0  -1.07216076250034 -0.6426284302415269 0  -1.056066956562134 -0.6687470248588712 0  -1.039337015378182 -0.6944627912745025 0  -1.02198101643948 -0.7197602392723067 0  -1.004009414350806 -0.7446241306155416 0  -0.9854330345332579 -0.7690394882257834 0  -0.9662630667034213 -0.7929916052045566 0  -0.946511058133106 -0.8164660536922207 0  -0.9261889066936989 -0.8394486935587731 0  -0.9053088536893338 -0.8619256809213336 0  -0.8838834764831847 -0.8838834764831843 0  -0.8619256809213338 -0.9053088536893334 0  -0.8394486935587733 -0.9261889066936986 0  -0.8164660536922214 -0.9465110581331053 0  -0.7929916052045574 -0.9662630667034209 0  -0.7690394882257841 -0.9854330345332574 0  -0.7446241306155414 -1.004009414350806 0  -0.7197602392723066 -1.02198101643948 0  -0.6944627912745027 -1.039337015378182 0  -0.6687470248588716 -1.056066956562134 0  -0.6426284302415273 -1.07216076250034 0  -0.6161227402872302 -1.087608738885889 0  -0.5892459210324973 -1.102401580435444 0  -0.5620141620682586 -1.116530376494394 0  -0.5344438667878531 -1.129986616404304 0  -0.506551642506238 -1.142762194629413 0  -0.4783542904563629 -1.154849415639108 0  -0.4498687956687349 -1.166240998543424 0  -0.4211123167402749 -1.176930081478776 0  -0.3921021754986143 -1.186910225741296 0  -0.3628558465680781 -1.196175419665261 0  -0.3333909468436231 -1.2047200822443 0  -0.3037252248790802 -1.21253906649318 0  -0.2738765501960876 -1.219627662548161 0  -0.2438629025201608 -1.225981600504038 0  -0.2137023609503771 -1.231597052986176 0  -0.1834130930692029 -1.236470637455976 0  -0.1530133439990199 -1.240599418248387 0  -0.1225214254119506 -1.243980908340246 0  -0.09195570449958419 -1.246613070848363 0  -0.06133459290927254 -1.248494320256466 0  -0.03067653565364049 -1.249623523370255 0  -2.296212748401287e-16 -1.25 0  0.03067653565364003 -1.249623523370255 0  0.06133459290927207 -1.248494320256466 0  0.09195570449958373 -1.246613070848363 0  0.1225214254119501 -1.243980908340246 0  0.1530133439990195 -1.240599418248387 0  0.1834130930692024 -1.236470637455976 0  0.2137023609503766 -1.231597052986177 0  0.2438629025201604 -1.225981600504038 0  0.2738765501960872 -1.219627662548161 0  0.3037252248790797 -1.21253906649318 0  0.3333909468436227 -1.2047200822443 0  0.3628558465680776 -1.196175419665261 0  0.3921021754986139 -1.186910225741296 0  0.4211123167402745 -1.176930081478776 0  0.4498687956687345 -1.166240998543424 0  0.4783542904563625 -1.154849415639108 0  0.5065516425062375 -1.142762194629413 0  0.5344438667878527 -1.129986616404304 0  0.5620141620682583 -1.116530376494394 0  0.589245921032497 -1.102401580435444 0  0.6161227402872298 -1.087608738885889 0  0.6426284302415269 -1.07216076250034 0  0.6687470248588712 -1.056066956562134 0  0.6944627912745023 -1.039337015378182 0  0.7197602392723061 -1.02198101643948 0  0.7446241306155411 -1.004009414350806 0  0.7690394882257838 -0.9854330345332576 0  0.792991605204557 -0.9662630667034211 0  0.8164660536922209 -0.9465110581331058 0  0.8394486935587729 -0.9261889066936989 0  0.8619256809213336 -0.9053088536893338 0  0.8838834764831842 -0.8838834764831847 0  0.9053088536893333 -0.8619256809213339 0  0.9261889066936986 -0.8394486935587733 0  0.9465110581331053 -0.8164660536922214 0  0.9662630667034209 -0.7929916052045574 0  0.9854330345332574 -0.7690394882257843 0  1.004009414350806 -0.7446241306155416 0  1.02198101643948 -0.7197602392723066 0  1.039337015378182 -0.6944627912745027 0  1.056066956562134 -0.6687470248588716 0  1.07216076250034 -0.6426284302415274 0  1.087608738885889 -0.6161227402872304 0  1.102401580435443 -0.5892459210324974 0  1.116530376494394 -0.5620141620682587 0  1.129986616404304 -0.5344438667878532 0  1.142762194629413 -0.50655164250623
[...]
<PointData  Scalars="f_1618695"> 
<DataArray  type="Float64"  Name="f_1618695"  format="ascii">1.5269959206190218e+00  2.1575406574592693e+00  2.4749763926161372e+00  3.0010153779869242e+00  3.4382344090772738e+00  3.9107367962882784e+00  4.3244057628052524e+00  4.8588709268745003e+00  5.1416742167741205e+00  5.7866611728805672e+00  6.0986686626806952e+00  6.5417569182306829e+00  7.1280186289361644e+00  7.3948688402204148e+00  7.9823712188866711e+00  8.2787036899520139e+00  8.8903296432487267e+00  9.2309963133819242e+00  9.7273841198415951e+00  1.0092800810500922e+01  1.0635928253718010e+01  1.1021690032630563e+01  1.1399845205382942e+01  1.1909850271356706e+01  1.2381856251051900e+01  1.2729975474148080e+01  1.3331962979777932e+01  1.3612298030182110e+01  1.4137910132520764e+01  1.4567775241752488e+01  1.5017709368076767e+01  1.5479511242460779e+01  1.5978952030566118e+01  1.6292764735622445e+01  1.6883646258712247e+01  1.7374449764572667e+01  1.7715796879145692e+01  1.8226641207656499e+01  1.8531436557567392e+01  1.9336978224406810e+01  1.9315179489770596e+01  2.0368648550238863e+01  2.0505807774517812e+01  2.1230331891586296e+01  2.1622199587723038e+01  2.2036788994298437e+01  2.2817703098192531e+01  2.2855069587472560e+01  2.3928793865347583e+01  2.4083617515708134e+01  2.4884939429049822e+01  2.5119615026851726e+01  2.6107933491490780e+01  2.6173826323882590e+01  2.7308275157932375e+01  2.7641771674987140e+01  2.8276670197470764e+01  2.8759326292824412e+01  2.9596125178696912e+01  3.0212271733561685e+01  3.0696797203590652e+01  3.1514700649632299e+01  3.2295694991142213e+01  3.2724370810727876e+01  3.3883924941984723e+01  3.4192867959041124e+01  3.5243229968823229e+01  3.6043111872071414e+01  3.6856008117964606e+01  3.7362512037069230e+01  3.8617975639742987e+01  3.9612643633783605e+01  4.0168765731331234e+01  4.1670518002768773e+01  4.2768733673385533e+01  4.3497157762024976e+01  4.4034659288733465e+01  4.6541448939399444e+01  4.6477045274462114e+01  4.8304221795295582e+01  4.9513477589990195e+01  5.0619358366802871e+01  5.2063428009544296e+01  5.3377486012554229e+01  5.4519994702439618e+01  5.6703360618601927e+01  5.7516976727061568e+01  5.8801423888785337e+01  6.0702855720503365e+01  6.2362793015781833e+01  6.3876414330963932e+01  6.5465306682977044e+01  6.7260408409241023e+01  6.8767855198565059e+01  7.0693093934064095e+01  7.2569559130377442e+01  7.4195411898895301e+01  7.6786688218191827e+01  7.7762875212448023e+01  7.9534071914749575e+01  8.1418804744579134e+01  8.3333997480633485e+01  8.4801211527130931e+01  8.6273810768092105e+01  8.7176845607822017e+01  8.8870703867600639e+01  8.9994567806605218e+01  9.0864508257445266e+01  9.1754807033451883e+01  9.1993314217957760e+01  9.2634011187130213e+01  9.2297304125269932e+01  9.1572210954954556e+01  9.0225527906074149e+01  8.7295528529388079e+01  8.4407651785449133e+01  8.0035444688892625e+01  7.5541427288570858e+01  7.0356360538004523e+01  6.4983625009290904e+01  5.8792418488743273e+01  5.1648703880305710e+01  4.4031952030035043e+01  3.6428710753801866e+01  2.8897996919003553e+01  1.9885601248848218e+01  1.0395068951450362e+01  1.4502961127657144e+00  -7.6263828542725145e+00  -1.6909824528613747e+01  -2.5385207382544706e+01  -3.4076773412901360e+01  -4.1898472483827625e+01  -4.8894191681170000e+01  -5.5713235189551021e+01  -6.2404445076647484e+01  -6.8781467422494757e+01  -7.3995205311490139e+01  -7.8547822277333282e+01  -8.2827344753933758e+01  -8.6604350691282576e+01  -9.0476365634736510e+01  -9.3382337506283221e+01  -9.4753687192157258e+01  -9.6604180928768528e+01  -9.7281893607224774e+01  -9.7951006037937319e+01  -9.7806664675614456e+01  -9.7340753463032343e+01  -9.6579060103229921e+01  -9.5430576109564981e+01  -9.4078722436741629e+01  -9.3398217848979812e+01  -9.2182600481302487e+01  -9.0550818039215258e+01  -8.9113023983711528e+01  -8.7419428771798280e+01  -8.5772101903417720e+01  -8.3909594414508646e+01  -8.2421019445560887e+01  -8.0882533285033645e+01  -7.9144424481967874e+01  -7.7447625991704882e+01  -7.5983329558655328e+01  -7.4213969513636741e+01  -7.2104515685959811e+01  -7.0388708435366496e+01  -6.8646442262721877e+01  -6.6948204838951597e+01  -6.5527774794868677e+01  -6.3689282175344744e+01  -6.1687683566208783e+01  -6.0486589037687750e+01  -5.8817877227503487e+01  -5.6762269360340895e+01  -5.5671318350595108e+01  -5.4489171924533338e+01  -5.2259443015754123e+01  -5.2343592591285741e+01  -4.9276394171766306e+01  -4.8821246871234543e+01  -4.6948613226579809e+01  -4.6391661852646912e+01  -4.4875388668786449e+01  -4.4516519248573751e+01  -4.2178104299875095e+01  -4.1593700547835454e+01  -4.0763016782781818e+01  -3.9400944795437319e+01  -3.8428606185157918e+01  -3.7366146051032217e+01  -3.7118749964129222e+01  -3.5212849262243161e+01  -3.4747986016888845e+01  -3.3711934930524251e+01  -3.2774087158144759e+01  -3.2288250427949329e+01  -3.1174612077808415e+01  -3.0583491237289195e+01  -2.9678873655991822e+01  -2.8718044666521823e+01  -2.8164307551326413e+01  -2.7423406170796493e+01  -2.6864129802789446e+01  -2.5768335172034742e+01  -2.5336015334242905e+01  -2.4639285328074084e+01  -2.4058450325821948e+01  -2.3164551610485002e+01  -2.2976337705542402e+01  -2.1819024349077541e+01  -2.1695860101056216e+01  -2.0575959088988022e+01  -2.0259194139429507e+01  -1.9627603482425599e+01  -1.9012465617364462e+01  -1.8365499007306145e+01  -1.8144390744385674e+01  -1.6951246183348765e+01  -1.6702673705442358e+01  -1.6238318868414236e+01  -1.5696579606174646e+01  -1.5009741323298947e+01  -1.4568167458012070e+01  -1.3985659807860859e+01  -1.3442344962536106e+01  -1.2962512093194553e+01  -1.2424204998421347e+01  -1.1887631154713679e+01  -1.1417851197977614e+01  -1.0787820220297956e+01  -1.0521233202081241e+01  -9.6993244256318825e+00  -9.4704898937386339e+00  -8.7781512222902904e+00  -8.3254318980768645e+00  -7.8050996409125863e+00  -7.3929742253735746e+00  -6.9756421238417916e+00  -6.2773797531692255e+00  -5.8858297749006541e+00  -5.4974469026407942e+00  -4.8198190230582423e+00  -4.5402123798937044e+00  -3.9465710859322067e+00  -3.5810384605321572e+00  -3.0157889551472068e+00  -2.6658173800492801e+00  -1.9817231769949417e+00  -1.8003295303332474e+00  -1.0296660911121491e+00  -6.9921916460324163e-01  -2.8996348584592863e-01  2.7900727410977166e-01  6.8763201322810075e-01  1.2076971998828006e+00  3.4882970032866583e+00  3.3290043861958223e+00  3.0102467594913098e+00  3.0719185318534188e+00  2.9630061767800933e+00  2.8209990113476024e+00  2.6670300488371974e+00  2.4844403796028369e+00  2.2514605580186347e+00  1.9998632353823529e+00  1.8268458088373201e+00  1.7237290038581117e+00  1.6033432941141510e+00  1.3005995677008146e+00  1.0302148175707151e+00  8.5452432060626871e-01  6.7089058978718807e-01  3.4375996582874457e-01  1.5336184526813723e-01  3.2882043299416443e-02  -5.7154984080697802e-01  -8.6045591388912779e-01  -1.0464702734104827e+00  -1.1296192992664611e+00  -1.6595796695627052e+00  -1.9839591669142698e+00  -2.6212391760406972e+00  -2.8682458696975175e+00  -3.3384981807022855e+00  -4.0428839968215771e+00  -4.3052354652167644e+00  -4.6611343587278000e+00  -5.0604081146441260e+00  -5.9492787720164104e+00  -6.2713641157138165e+00  -6.8403129589573117e+00  -7.8368291260587348e+00  -8.4224610486849816e+00  -9.0537080838955202e+00  -9.4987170917033712e+00  -1.0343449555834844e+01  -1.1031690250158686e+01  -1.1907670500154135e+01  -1.2804786587959962e+01  -1.3640995603900091e+01  -1.4492809695697627e+01  -1.5652967503390220e+01  -1.6563051620182897e+01  -1.7266713933666388e+01  -1.8246709781402657e+01  -1.9447703624828033e+01  -2.0660142153847854e+01  -2.1702293321314485e+01  -2.2613019300751201e+01  -2.3786714314413913e+01  -2.5033623429469987e+01  -2.6403598807381918e+01  -2.7774708190920272e+01  -2.9000126125466497e+01  -3.0298289293333220e+01  -3.1700288473445582e+01  -3.3244769643560581e+01  -3.4587225140619694e+01  -3.6252835414323613e+01  -3.7623690852842138e+01  -3.9340589751075299e+01  -4.0560420165966917e+01  -4.2088139021597904e+01  -4.3623399375466640e+01  -4.5495821655029054e+01  -4.7582520872450047e+01  -4.9267011500354137e+01  -5.0961134633210484e+01  -5.2790367939846981e+01  -5.5065946958486229e+01  -5.6579726546472976e+01  -5.8125509935474184e+01  -6.0291515473274337e+01  -6.2497858588712390e+01  -6.4056323910874241e+01  -6.5975195925026100e+01  -6.8545088662873113e+01  -6.9935075059739233e+01  -7.1300400733914358e+01  -7.3813242447967653e+01  -7.5748301661794073e+01  -7.7527768031200736e+01  -7.9491364327369297e+01  -8.1560089344444222e+01  -8.3267171964243829e+01  -8.4343811545355223e+01  -8.6248414385485177e+01  -8.7506172950152973e+01  -8.8668781130981884e+01  -9.0942306750204182e+01  -9.2163635362419285e+01  -9.2877413891226524e+01  -9.4092149281585534e+01  -9.5268875620334541e+01  -9.6085416554017243e+01  -9.6960912754306108e+01  -9.7554102309687664e+01  -9.7818488882766786e+01  -9.8155403660278822e+01  -9.8217033110933500e+01  -9.8007643678193645e+01  -9.7772377572559037e+01  -9.7348338606164333e+01  -9.6723492414540431e+01  -9.5891625365913001e+01  -9.4370445893574683e+01  -9.2204093450065429e+01  -8.9509647814570641e+01  -8.6279610002743595e+01  -8.3269256522200564e+01  -7.9595846064008526e+01  -7.5357104071117689e+01  -7.0831066897055990e+01  -6.6376761529020840e+01  -6.1897631019439480e+01  -5.7684189272766673e+01  -5.3211400014176853e+01  -4.7855752695507135e+01  -4.2349826899654346e+01  -3.6852548707085383e+01  -3.1360428970876228e+01  -2.6432214283389875e+01  -2.1200546946262417e+01  -1.4308982973446636e+01  -7.9446708843815728e+00  -1.5986214211994141e+00  5.9160536173701042e+00  1.1717281409855364e+01  1.8692693741456306e+01  2.4464965124708609e+01  3.0157876827782037e+01  3.5659585822660425e+01  4.1941311847919962e+01  4.6961988195756682e+01  5.2214463866500367e+01  5.7166858969069445e+01  6.2558466683439434e+01  6.7235409198734956e+01  7.1428853508171898e+01  7.5689622168520799e+01  7.9208772958811437e+01  8.2541001569819855e+01  8.5592878097772086e+01  8.8010495943299659e+01  9.0321836005714800e+01  9.1879279455375013e+01  9.2928136058585494e+01  9.3812085226699764e+01  9.4652557244760715e+01  9.4912654139197983e+01  9.4844484312486145e+01  9.4997029512697665e+01  9.4744124179798405e+01  9.4645366574366847e+01  9.3950492376617021e+01  9.3114331370754414e+01  9.2346275363602530e+01  9.1388404303077053e+01  9.0267354925259099e+01  8.9636461799340879e+01  8.8746960644417584e+01  8.6549191333197939e+01  8.5174087380886050e+01  8.4086345051283217e+01  8.1714691889535672e+01  8.0919909853237499e+01  7.9146193323669195e+01  7.7916553260786870e+01  7.6186075293487363e+01  7.4800186666784541e+01  7.2928776112839813e+01  7.1202924547373897e+01  6.9792461273564200e+01  6.8407664783803568e+01  6.6366852349425344e+01  6.4514694395713732e+01  6.3358085129953665e+01  6.1277560907829212e+01  5.9559651766488372e+01  5.8016643184312834e+01  5.7106937781112919e+01  5.4565888526538039e+01  5.3166066192522891e+01  5.1629183483584008e+01  5.0211439944721015e+01  4.7910792707816562e+01  4.6713067910113594e+01  4.5401387344213184e+01  4.4083695457970265e+01  4.2718530009478016e+01  4.1661142500638348e+01  3.9916114845768888e+01  3.8440595278166931e+01  3.7290847982282806e+01  3.6106806081121483e+01  3.4650862439100607e+01  3.3529365904444283e+01  3.2164006010203622e+01  3.0951551647937464e+01  2.9577823756263125e+01  2.8753714341090866e+01  2.7751555165163477e+01  2.6563650792738443e+01  2.5593426206364811e+01  2.4490250198250671e+01  2.3585677718148169e+01  2.2550886445540048e+01  2.1542239964752390e+01  2.0890287713336555e+01  2.0067686268460935e+01  1.8926197207891782e+01  1.8148059148703133e+01  1.7620577192989515e+01  1.6656909536928271e+01  1.5904195949547455e+01  1.5225428285146439e+01  1.4684988909983273e+01  1.4155247330039728e+01  1.3657675395284112e+01  1.2822625558434284e+01  1.2282210344597784e+01  1.1863107345845783e+01  1.1619094447785146e+01  1.0838039654637507e+01  1.0456647425984658e+01  9.9578079688890835e+00  9.5165839503586902e+00  8.8673057606070582e+00  8.6899765073763326e+00  8.3523632224492204e+00  8.0978023180174183e+00  7.8165203479274847e+00  7.5211649691363824e+00  7.1977055030007921e+00  7.0232917606866767e+00  6.6491977306254055e+00  6.2948202612150066e+00  6.0409041879010532e+00  5.7551834121478791e+00  5.5781757529860894e+00  5.2904767855196368e+00  5.0993706933450378e+00  5.0754134874183876e+00  4.9037148927415446e+00  4.6825240181811907e+00  4.5241547665425283e+00  4.3785511578337735e+00  4.2151346907977505e+00  4.1114450457771712e+00  3.8447956085459665e+00  3.6164417839324940e+00  1.4145699592799132e+00  4.6279225667260260e+00  -1.7651228489383999e+00  7.7637868968988775e+00  -5.2004736430281318e+00  1.0923950972918931e+01  -8.8465144068223154e+00  1.4214382891134742e+01  -1.2581835181433485e+01  1.7931492978108036e+01  -1.7206841010708168e+01  2.1520079015694872e+01  -2.1615754397381131e+01  2.5255511182697933e+01  -2.6827264472118035e+01  2.9112882932874410e+01  -3.2330620082775134e+01  3.2933937782625286e+01  3.0933255210244659e+00  -3.7162388070918176e+01  -4.8484017779608690e-01  6.4916607831275277e+00  -4.1593851932221719e+00  3.0349304096232737e+00  -2.4499940213118458e+00  2.5113523187319958e-01  5.5185417916256112e+00  3.7334602003814453e+01  -8.0132963488090230e+00  9.9090731667606704e+00  8.1775649833222470e+00  -4.2055940246025365e+01  -5.4108847247573424e+00  1.3291481961406516e+01  -1.1913192915415957e+01  1.1152928118247338e+01  -8.5349882265161252e+00  1.4921896462003386e+00  4.1789640487644959e+01  4.7300558221621696e+00  -2.6467278981209725e+00  1.6865655062363165e+00  1.6796243957885689e+01  -1.6301981362561765e+01  8.1914253558610532e+00  1.4606110997691625e+01  -1.2899990063905191e+01  -4.7179681706515382e+01  -6.5264077281303194e+00  1.2016723931246608e+01  -1.0302550185575010e+01  4.6664504196896786e+01  -2.0734717132805425e+01  2.0410574052329281e+01  -3.5162663679465282e+00  -9.6091976293357995e-01  -5.2054085885664968e+01  1.5528747928080200e+01  -1.4403654937427181e+01  -9.6416424360779089e+00  1.7948976112344287e+01  4.2128396256036051e+00  6.7688226797722599e+00  -1.7144153663558217e+01  9.4699750986440012e+00  1.2324161023405377e+01  2.3823817432367061e+01  -2.4920008989844398e+01  5.1507055197779771e+01  1.8641142347241033e+01  -5.7039275371397210e+01  -5.9683373160094835e+00  2.2481685926653427e+01  -2.2119737368292348e+01  -1.8527037391868014e+01  -1.4031538608965372e+01  5.6526850485609465e+01  6.4220180791508286e+00  -4.2802420395957130e-01  2.2278005495786104e+01  2.7587312741343109e+01  -3.0585189734295923e+01  1.9796791217168277e+01  -2.2950554482514494e+01  3.3671055961672653e+00  -6.2356414293312753e+01  -2.6417524621628058e+01  2.6811823667558851e+01  9.4982767115030793e+00  3.1201739343068770e+01  1.5454084291587186e+01  -6.6851140649142424e+00  -1.8616740795687551e+01  -3.0582554856681314e+00  6.1459895401060031e+01  2.5575228735288004e+01  -2.7383716115525502e+01  -1.0278029964787519e+01  -3.5260077872316444e+01  1.2724812214457096e+01  -6.7578662276658761e+01  2.5513592313161912e+00  5.9085767880500546e+00  3.2424824096400051e-01  3.1252439995349448e+01  -5.4559976270157193e+00  -1.6198933235315562e+00  -3.9666594428301245e+00  -3.2977141175416662e+01  9.5085787818883052e+00  1.9273312778571590e+01  9.3362889318131626e-01  3.8049553634186406e+00  6.5654438512345067e+01  2.3924630635370750e+01  8.7232581270591822e+00  2.1813028330824622e+00  2.9282608823597933e+01  1.1124937869368122e+01  -2.9037711396223997e+01  3.5181416712937796e+01  3.4837798387361822e+01  2.0928945732080910e+00  -7.2050635283538622e-01  7.2284093230240956e+00  -2.3756754942546788e+01  -7.2808031982395079e+01  3.6007704536138446e-01  -1.5211787198542401e+00  1.5521133229819965e+01  3.1656423733080792e+00  3.9036489787307566e+01  -4.3293458924650592e+00  -3.2683712159502726e+01  2.4172473943137507e+00  -3.7674645801073083e+01  1.3194485558531102e+00  4.4439948172094651e-01  6.9984566076571156e+01  -3.9994667106741481e+01  -9.4643734887197990e+00  -7.8799045201468747e+00  -3.1448383852325783e+00  1.4725017758061540e+01  4.3297917242203949e+00  5.2826736894607063e+00  3.9856640031238486e+00  -3.8702576415575507e+00  5.6471348792594931e+00  -1.9033699593559103e+01  1.4211552652213483e+01  1.3259951842334697e+01  -3.0051087646076753e+00  -1.4304096914303628e+01  1.0612903278935557e+01  7.2382416395794751e+00  -1.6209195079036383e+00  -1.0446741180860256e+01  -1.3455484832693495e+01  -1.1747216918993615e+01  -6.6299563286617795e+00  3.2972366009292230e+01  -1.5483141456895529e+01  2.8609404256425318e+01  -1.0623707250648698e+01  5.0309826381542893e+00  6.4865638066048152e+00  7.2559709489561914e+00  -8.8471542674644947e+00  -7.5942311766673498e-01  -5.1229952559495677e+00  1.6309150821086234e+01  2.3012447089157156e+01  -4.5092755691947048e+01  -7.7449834417834182e+01  3.9732158192958437e+01  1.6878353926368028e+01  1.2093808732977823e+01  -7.0684973332918348e+00  -9.5555844562584387e+00  -1.6051040510299902e+01  -1.7732116677248474e+01  -3.7492186135746934e+01  9.8824389255890583e+00  9.1301455741391084e+00  -1.1910330786370464e+01  8.3055559285130052e+00  -7.1962857444739159e+00  -5.7783405399087915e+00  -4.2557280998481751e+01  7.5612447432125066e+01  4.3232394616486459e+01  1.8022325477425717e+01  -3.7948630234378355e+00  3.7873024796297177e+00  1.7062925350387488e+01  -6.7103117778505172e-01  -1.2234552982609072e+01  -2.0501120098288368e+00  3.6714592565066063e+01  7.2241173324061225e-01  6.7186844290732068e+00  1.2292504762982212e+01  -8.1355739445534269e+01  -2.4837865969561133e+01  1.0679277665588067e+01  -5.4920778139405009e+00  -8.4907793637400548e+00  2.6741947202334877e+01  -1.4825449528745448e+01  4.6013600482357838e+01  -1.0825283498103531e+01  2.0043188477482133e+01  2.1625290756918048e+01  5.0275967757498385e+00  -4.2325495156732693e+01  -2.8690512368798135e+01  1.2855622488646940e+01  1.5378984010926745e+01  8.0099318499575929e+01  1.4066309063309816e+01  -2.0199071523633840e+01  -2.2083761471230531e+01  4.8069437802123318e+01  5.2247521906473509e+00  1.7603969712285781e+00  8.1584953668929465e+00  -8.8493753970297240e-02  9.2299732591827848e+00  -4.8979568932804909e+01  -4.8909542039625940e+01  1.3465416006429720e+01  3.7248435784250651e+00  -3.2074235153708019e+00  -2.9450550893635096e+01  1.9165457713442969e+01  -5.4243608537997183e+01  -1.7144623667402225e+01  4.0972432487689339e+01  -8.5238861491241977e+01  5.0882039549184917e+01  2.0072717266564467e+01  7.7514472400992611e+00  1.0446546920598292e+01  2.1469904287613621e+00  -1.6965712289477319e+00  4.2557718654542690e+01  9.1840928984562993e+00  -5.4343956003430414e+01  2.0655019990357111e+01  -1.3486552060820893e+01  3.0633086668089490e+01  8.4102055856363094e+01  -1.9044607249183052e+01  -6.5325972250857740e+00  -2.0840128939739245e+01  1.2451231345484185e+01  2.4534598042143045e+01  -2.3383515863213660e+01  -4.5342111957886033e+01  -2.6402420658159301e+01  -2.4429076469581215e+01  2.4975055000345311e+01  2.3580206540449215e+01  -8.9042997368116616e+01  -7.5399157921163020e+00  -1.8530491369969688e+01  -3.4951452606812957e+01  -3.5244116505634864e+01  1.7354804026422844e+01  1.5520006673926344e+01  -1.9519713705172421e+01  -1.6875288449169837e+01  8.8853973462660640e+00  3.3139962880845474e+01  2.6109398353782480e+00  3.5552205163161169e+01  -1.3130211799602616e+01  3.7319727642624215e+01  -5.8956864917540820e+01  5.2096840681851084e+01  1.2710763950375638e+01  1.1401223853854818e+01  -4.0044517997542997e+01  2.0077507978896389e+01  -1.0469508018373796e+01  1.7089631166549648e+01  8.7093166344954270e+01  4.5451770170097532e+01  -5.1385903687042202e+01  -2.1533333680776636e+01  -3.0675920348620959e+01  2.1826422492210554e+01  -2.3896624113007565e+00  -1.5006392105734557e+01  1.5724396211162341e+01  3.9658374029565046e+01  2.6991223109029143e+01  5.8578913377562056e+00  -7.3552213251425176e+00  -3.9263220715527346e+01  1.3917134770444271