<?xml version="1.0"?>
<VTKFile type="UnstructuredGrid"  version="0.1"  >
<UnstructuredGrid>
<Piece  NumberOfPoints="2401" NumberOfCells="4608">
<Points>
<DataArray  type="Float64"  NumberOfComponents="3"  format="ascii">0 0 0  0.001070538380698371 0 0  0.004277569313095364 0 0  0.009607359798386061 0 0  0.01703708685546806 0 0  0.02653493525245065 0 0  0.03806023374436157 0 0  0.05156362923366253 0 0  0.06698729810778931 0 0  0.08426519384873815 0 0  0.1033233298543955 0 0  0.1240800962605269 0 0  0.1464466094067445 0 0  0.1703270924499866 0 0  0.1956192854956637 0 0  0.2222148834902257 0 0  0.2500000000000299 0 0  0.2788556548905322 0 0  0.308658283817491 0 0  0.339280267348458 0 0  0.3705904774487813 0 0  0.4024548389919803 0 0  0.4347369038900211 0 0  0.467298435384978 0 0  0.5000000000000517 0 0  0.5327015646151253 0 0  0.5652630961100813 0 0  0.5975451610081212 0 0  0.6294095225513188 0 0  0.6607197326516399 0 0  0.6913417161826045 0 0  0.7211443451095605 0 0  0.7500000000000597 0 0  0.7777851165098603 0 0  0.8043807145044185 0 0  0.829672907550091 0 0  0.8535533905933287 0 0  0.8759199037395413 0 0  0.8966766701456674 0 0  0.9157348061513193 0 0  0.9330127018922625 0 0  0.9484363707663832 0 0  0.961939766255678 0 0  0.9734650647475827 0 0  0.9829629131445586 0 0  0.9903926402016341 0 0  0.9957224306869181 0 0  0.9989294616193084 0 0  1 0 0  0 0.02083333333333333 0  0.001070538380698371 0.02083333333333333 0  0.004277569313095364 0.02083333333333333 0  0.009607359798386061 0.02083333333333333 0  0.01703708685546806 0.02083333333333333 0  0.02653493525245065 0.02083333333333333 0  0.03806023374436157 0.02083333333333333 0  0.05156362923366253 0.02083333333333333 0  0.06698729810778931 0.02083333333333333 0  0.08426519384873815 0.02083333333333333 0  0.1033233298543955 0.02083333333333333 0  0.1240800962605269 0.02083333333333333 0  0.1464466094067445 0.02083333333333333 0  0.1703270924499866 0.02083333333333333 0  0.1956192854956637 0.02083333333333333 0  0.2222148834902257 0.02083333333333333 0  0.2500000000000299 0.02083333333333333 0  0.2788556548905322 0.02083333333333333 0  0.308658283817491 0.02083333333333333 0  0.339280267348458 0.02083333333333333 0  0.3705904774487813 0.02083333333333333 0  0.4024548389919803 0.02083333333333333 0  0.4347369038900211 0.02083333333333333 0  0.467298435384978 0.02083333333333333 0  0.5000000000000517 0.02083333333333333 0  0.5327015646151253 0.02083333333333333 0  0.5652630961100813 0.02083333333333333 0  0.5975451610081212 0.02083333333333333 0  0.6294095225513188 0.02083333333333333 0  0.6607197326516399 0.02083333333333333 0  0.6913417161826045 0.02083333333333333 0  0.7211443451095605 0.02083333333333333 0  0.7500000000000597 0.02083333333333333 0  0.7777851165098603 0.02083333333333333 0  0.8043807145044185 0.02083333333333333 0  0.829672907550091 0.02083333333333333 0  0.8535533905933287 0.02083333333333333 0  0.8759199037395413 0.02083333333333333 0  0.8966766701456674 0.02083333333333333 0  0.9157348061513193 0.02083333333333333 0  0.9330127018922625 0.02083333333333333 0  0.9484363707663832 0.02083333333333333 0  0.961939766255678 0.02083333333333333 0  0.9734650647475827 0.02083333333333333 0  0.9829629131445586 0.02083333333333333 0  0.9903926402016341 0.02083333333333333 0  0.9957224306869181 0.02083333333333333 0  0.9989294616193084 0.02083333333333333 0  1 0.02083333333333333 0  0 0.04166666666666666 0  0.001070538380698371 0.04166666666666666 0  0.004277569313095364 0.04166666666666666 0  0.009607359798386061 0.04166666666666666 0  0.01703708685546806 0.04166666666666666 0  0.02653493525245065 0.04166666666666666 0  0.03806023374436157 0.04166666666666666 0  0.05156362923366253 0.04166666666666666 0  0.06698729810778931 0.04166666666666666 0  0.08426519384873815 0.04166666666666666 0  0.1033233298543955 0.04166666666666666 0  0.1240800962605269 0.04166666666666666 0  0.1464466094067445 0.04166666666666666 0  0.1703270924499866 0.04166666666666666 0  0.1956192854956637 0.04166666666666666 0  0.2222148834902257 0.04166666666666666 0  0.2500000000000299 0.04166666666666666 0  0.2788556548905322 0.04166666666666666 0  0.308658283817491 0.04166666666666666 0  0.339280267348458 0.04166666666666666 0  0.3705904774487813 0.04166666666666666 0  0.4024548389919803 0.04166666666666666 0  0.4347369038900211 0.04166666666666666 0  0.467298435384978 0.04166666666666666 0  0.5000000000000517 0.04166666666666666 0  0.5327015646151253 0.04166666666666666 0  0.5652630961100813 0.04166666666666666 0  0.5975451610081212 0.04166666666666666 0  0.6294095225513188 0.04166666666666666 0  0.6607197326516399 0.04166666666666666 0  0.6913417161826045 0.04166666666666666 0  0.7211443451095605 0.04166666666666666 0  0.7500000000000597 0.04166666666666666 0  0.7777851165098603 0.04166666666666666 0  0.8043807145044185 0.04166666666666666 0  0.829672907550091 0.04166666666666666 0  0.8535533905933287 0.04166666666666666 0  0.8759199037395413 0.04166666666666666 0  0.8966766701456674 0.04166666666666666 0  0.9157348061513193 0.04166666666666666 0  0.9330127018922625 0.04166666666666666 0  0.9484363707663832 0.04166666666666666 0  0.961939766255678 0.04166666666666666 0  0.9734650647475827 0.04166666666666666 0  0.9829629131445586 0.04166666666666666 0  0.9903926402016341 0.04166666666666666 0  0.9957224306869181 0.04166666666666666 0  0.9989294616193084 0.04166666666666666 0  1 0.04166666666666666 0  0 0.0625 0  0.001070538380698371 0.0625 0  0.004277569313095364 0.0625 0  0.009607359798386061 0.0625 0  0.01703708685546806 0.0625 0  0.02653493525245065 0.0625 0  0.03806023374436157 0.0625 0  0.05156362923366253 0.0625 0  0.06698729810778931 0.0625 0  0.08426519384873815 0.0625 0  0.1033233298543955 0.0625 0  0.1240800962605269 0.0625 0  0.1464466094067445 0.0625 0  0.1703270924499866 0.0625 0  0.1956192854956637 0.0625 0  0.2222148834902257 0.0625 0  0.2500000000000299 0.0625 0  0.2788556548905322 0.0625 0  0.308658283817491 0.0625 0  0.339280267348458 0.0625 0  0.3705904774487813 0.0625 0  0.4024548389919803 0.0625 0  0.4347369038900211 0.0625 0  0.467298435384978 0.0625 0  0.5000000000000517 0.0625 0  0.5327015646151253 0.0625 0  0.5652630961100813 0.0625 0  0.5975451610081212 0.0625 0  0.6294095225513188 0.0625 0  0.6607197326516399 0.0625 0  0.6913417161826045 0.0625 0  0.7211443451095605 0.0625 0  0.7500000000000597 0.0625 0  0.7777851165098603 0.0625 0  0.8043807145044185 0.0625 0  0.829672907550091 0.0625 0  0.8535533905933287 0.0625 0  0.8759199037395413 0.0625 0  0.8966766701456674 0.0625 0  0.9157348061513193 0.0625 0  0.9330127018922625 0.0625 0  0.9484363707663832 0.0625 0  0.961939766255678 0.0625 0  0.9734650647475827 0.0625 0  0.9829629131445586 0.0625 0  0.9903926402016341 0.0625 0  0.9957224306869181 0.0625 0  0.9989294616193084 0.0625 0  1 0.0625 0  0 0.08333333333333333 0  0.001070538380698371 0.08333333333333333 0  0.004277569313095364 0.08333333333333333 0  0.009607359798386061 0.08333333333333333 0  0.01703708685546806 0.08333333333333333 0  0.02653493525245065 0.08333333333333333 0  0.03806023374436157 0.08333333333333333 0  0.05156362923366253 0.08333333333333333 0  0.06698729810778931 0.08333333333333333 0  0.08426519384873815 0.08333333333333333 0  0.1033233298543955 0.08333333333333333 0  0.1240800962605269 0.08333333333333333 0  0.1464466094067445 0.08333333333333333 0  0.1703270924499866 0.08333333333333333 0  0.1956192854956637 0.08333333333333333 0  0.2222148834902257 0.08333333333333333 0  0.2500000000000299 0.08333333333333333 0  0.2788556548905322 0.08333333333333333 0  0.308658283817491 0.08333333333333333 0  0.339280267348458 0.08333333333333333 0  0.3705904774487813 0.08333333333333333 0  0.4024548389919803 0.08333333333333333 0  0.4347369038900211 0.08333333333333333 0  0.467298435384978 0.08333333333333333 0  0.5000000000000517 0.08333333333333333 0  0.5327015646151253 0.08333333333333333 0  0.5652630961100813 0.08333333333333333 0  0.5975451610081212 0.08333333333333333 0  0.6294095225513188 0.08333333333333333 0  0.6607197326516399 0.08333333333333333 0  0.6913417161826045 0.08333333333333333 0  0.7211443451095605 0.08333333333333333 0  0.7500000000000597 0.08333333333333333 0  0.7777851165098603 0.08333333333333333 0  0.8043807145044185 0.08333333333333333 0  0.829672907550091 0.08333333333333333 0  0.8535533905933287 0.08333333333333333 0  0.8759199037395413 0.08333333333333333 0  0.8966766701456674 0.08333333333333333 0  0.9157348061513193 0.08333333333333333 0  0.9330127018922625 0.08333333333333333 0  0.9484363707663832 0.08333333333333333 0  0.961939766255678 0.08333333333333333 0  0.9734650647475827 0.08333333333333333 0  0.9829629131445586 0.08333333333333333 0  0.9903926402016341 0.08333333333333333 0  0.9957224306869181 0.08333333333333333 0  0.9989294616193084 0.08333333333333333 0  1 0.08333333333333333 0  0 0.1041666666666667 0  0.001070538380698371 0.1041666666666667 0  0.004277569313095364 0.1041666666666667 0  0.009607359798386061 0.1041666666666667 0  0.01703708685546806 0.1041666666666667 0  0.02653493525245065 0.1041666666666667 0  0.03806023374436157 0.1041666666666667 0  0.05156362923366253 0.1041666666666667 0  0.06698729810778931 0.1041666666666667 0  0.08426519384873815 0.1041666666666667 0  0.1033233298543955 0.1041666666666667 0  0.1240800962605269 0.1041666666666667 0  0.1464466094067445 0.1041666666666667 0  0.1703270924499866 0.1041666666666667 0  0.1956192854956637 0.1041666666666667 0  0.2222148834902257 0.1041666666666667 0  0.2500000000000299 0.1041666666666667 0  0.2788556548905322 0.1041666666666667 0  0.308658283817491 0.1041666666666667 0  0.339280267348458 0.1041666666666667 0  0.3705904774487813 0.1041666666666667 0  0.4024548389919803 0.1041666666666667 0  0.4347369038900211 0.1041666666666667 0  0.467298435384978 0.1041666666666667 0  0.5000000000000517 0.1041666666666667 0  0.5327015646151253 0.1041666666666667 0  0.5652630961100813 0.1041666666666667 0  0.5975451610081212 0.1041666666666667 0  0.62
[...]
<PointData  Scalars="f_3378604"> 
<DataArray  type="Float64"  Name="f_3378604"  format="ascii">-4.0857026681276629e+00  -4.0880165597617699e+00  -4.0879218492677394e+00  -4.1611725146549876e+00  -4.2146176183576598e+00  -4.2930910605187504e+00  -4.5416218551031875e+00  -4.8083542092287326e+00  -5.1354711045314119e+00  -5.6211316531403694e+00  -6.1306953417147350e+00  -6.7262285468649212e+00  -7.3044474326409619e+00  -7.7086948846884358e+00  -8.2466530991016374e+00  -8.9801516546315838e+00  -9.2195855336238139e+00  -9.5036415429812386e+00  -9.7310394688159150e+00  -9.7582226825605733e+00  -9.8740527145433550e+00  -9.6899962100185579e+00  -9.4431331067804081e+00  -9.2273517805673162e+00  -8.7212416508955855e+00  -8.3011998272618914e+00  -7.8907890935246865e+00  -7.0389131451449289e+00  -6.3794361114163189e+00  -5.7130576185040018e+00  -4.6909308737409416e+00  -3.9080501490944077e+00  -3.0894845024063526e+00  -2.1486710156562268e+00  -9.9306596926642343e-01  6.9101111702674731e-02  8.8379494298020644e-01  1.8363575079830934e+00  2.6897269630715841e+00  3.3893639839581802e+00  3.9153594048443949e+00  4.3169062977505961e+00  4.6042638666286946e+00  4.7832643248444615e+00  4.8845776281134086e+00  4.9328360842228838e+00  4.9507603696551570e+00  4.9572470327939877e+00  4.9656332369179887e+00  -3.9615417292997179e+00  -3.9639157827276441e+00  -3.9714169576304288e+00  -4.0442000048148916e+00  -4.1048214321621073e+00  -4.1920649384364568e+00  -4.4097608474977283e+00  -4.6657318281798252e+00  -5.0516811686564518e+00  -5.5517006046060926e+00  -5.9722995637598117e+00  -6.5990424237091778e+00  -7.1951235171660892e+00  -7.6065709954632110e+00  -8.0639114780524075e+00  -8.8111212875400309e+00  -9.1111167184785575e+00  -9.4128094941254599e+00  -9.6288150480216625e+00  -9.6729118204199835e+00  -9.7540871208281086e+00  -9.5987370129366472e+00  -9.3379015344734668e+00  -9.0995115177232897e+00  -8.6164395591562499e+00  -8.1976872846393629e+00  -7.7810944788016787e+00  -6.9343625019039967e+00  -6.2585544535649964e+00  -5.5649760910403749e+00  -4.5467291630917321e+00  -3.7529268294197369e+00  -2.9569977045686833e+00  -1.8738228889517647e+00  -8.2863013847719724e-01  1.7534988120168837e-01  1.0651127418508728e+00  2.0837662064107558e+00  2.9934211970970570e+00  3.6839494768707706e+00  4.2076861653680755e+00  4.6037639389360070e+00  4.8829633305246674e+00  5.0605771145112763e+00  5.1644670401668833e+00  5.2143818993797977e+00  5.2325335843135026e+00  5.2352223700434140e+00  5.2309660971698735e+00  -3.6672015419471955e+00  -3.6666952994009305e+00  -3.6732335509471632e+00  -3.7524942201000582e+00  -3.8230617135109028e+00  -3.9089373020706932e+00  -4.1087135014704668e+00  -4.3515407594475999e+00  -4.6434803867011398e+00  -5.2776212418949520e+00  -5.6433928850890558e+00  -6.0406234831581536e+00  -6.9629399968014134e+00  -7.3436355581890327e+00  -7.7373704325876336e+00  -8.2522504888507271e+00  -8.7523174109828421e+00  -9.0869151993400497e+00  -9.3237618765488648e+00  -9.3602896546407361e+00  -9.4182770057269707e+00  -9.2615151017662072e+00  -9.0134141018177090e+00  -8.7607821875848551e+00  -8.2944493660880436e+00  -7.8891987664305585e+00  -7.4763357628785174e+00  -6.6078150905483346e+00  -5.9392300192375673e+00  -5.2275248533713290e+00  -4.2005068186003038e+00  -3.4229418362293327e+00  -2.6298904052528007e+00  -1.3870264690914587e+00  -4.9518674810256552e-01  4.3432163702534105e-01  1.4664686946529544e+00  2.5461869511223649e+00  3.4549866318930800e+00  4.1016503908341253e+00  4.6060426227027609e+00  4.9884023032914397e+00  5.2627350113113618e+00  5.4459454821081916e+00  5.5563772019185240e+00  5.6124715864139221e+00  5.6345997407483255e+00  5.6396796449092417e+00  5.6404070186176263e+00  -3.1045839367271375e+00  -3.1042139644536650e+00  -3.1214592488575801e+00  -3.2183475396828607e+00  -3.3661814350400991e+00  -3.4613510024004808e+00  -3.6708434226316924e+00  -3.8865591315277768e+00  -4.1474751675106845e+00  -4.8210268697370111e+00  -5.2321881839274020e+00  -5.5521133739594193e+00  -5.9070160629616968e+00  -6.9985679101008778e+00  -7.3761385872617016e+00  -7.8455102234866185e+00  -8.1517544439042826e+00  -8.5797668470257218e+00  -8.7978770755322966e+00  -8.8472223044811944e+00  -8.9003014887471519e+00  -8.7488465012863088e+00  -8.5285367110651009e+00  -8.2822806057525789e+00  -7.8410007054092210e+00  -7.4566873823793696e+00  -7.0530786330885000e+00  -6.1762795884094119e+00  -5.5245687715965710e+00  -4.8100356738901517e+00  -3.7942128751977644e+00  -3.0318551585361631e+00  -2.2346673269630832e+00  -9.0828536283232053e-01  -3.7976708158703576e-02  8.8845855332944956e-01  2.0814240978055696e+00  3.0187504326615562e+00  3.8715197990899037e+00  4.5133700253751616e+00  5.0140258144794956e+00  5.4055254920242026e+00  5.6967859090988622e+00  5.8972517675662726e+00  6.0197217227792175e+00  6.0832219754880006e+00  6.1082899520551077e+00  6.1137172505464505e+00  6.1141627058475425e+00  -2.3794077866654781e+00  -2.3815448774144361e+00  -2.3943108224591017e+00  -2.4466262990440919e+00  -2.6573878273495568e+00  -2.9304131554827770e+00  -3.0819499451693586e+00  -3.3587764623651277e+00  -3.6144341589399134e+00  -3.9133010848580980e+00  -4.8041925183677412e+00  -5.1438752346810483e+00  -5.4183776618882611e+00  -5.7478967576486850e+00  -6.7910800205010808e+00  -7.2840391933930739e+00  -7.6116651982146362e+00  -7.8150331226264038e+00  -8.0620629034787274e+00  -8.1396297894682181e+00  -8.2272323939072987e+00  -8.1163649592464555e+00  -7.9348338292979843e+00  -7.7120503629165897e+00  -7.3085925338421927e+00  -6.9506741308017599e+00  -6.5606370934140630e+00  -5.6910355249895206e+00  -5.0631200939618051e+00  -4.3556806250104732e+00  -3.3548750313983686e+00  -2.6053473024582323e+00  -1.8099849927519183e+00  -4.1700684611029976e-01  4.7836630768209137e-01  1.4387663019690047e+00  2.6347283031875333e+00  3.4052618804991757e+00  4.5574663847219288e+00  5.2779662268076608e+00  5.8512823231117421e+00  6.2480180500032558e+00  6.5253092943024766e+00  6.7102678876679684e+00  6.8220177723388602e+00  6.8786599877638803e+00  6.8997384309965151e+00  6.9038280755361390e+00  6.9036357077114872e+00  -1.7768585912755632e+00  -1.7747933005903809e+00  -1.7790904701783621e+00  -1.8062864284913067e+00  -1.8791447836812816e+00  -2.1362216167452224e+00  -2.5152815675758560e+00  -2.7262273440038070e+00  -3.0858403223866033e+00  -3.3710821517841945e+00  -3.6673951967042555e+00  -4.6612216739597043e+00  -4.9512437333574537e+00  -5.1838090735365112e+00  -5.5008772780198365e+00  -6.3844905465758686e+00  -6.7807233713440551e+00  -7.0186662650391343e+00  -7.2572039249493994e+00  -7.3815041809834856e+00  -7.4901074509570016e+00  -7.4368356642949616e+00  -7.2928082552377136e+00  -7.1006307557084583e+00  -6.7406885972106432e+00  -6.4130290861294785e+00  -6.0425024007535892e+00  -5.1919995034194715e+00  -4.5882250454031759e+00  -3.8914125252625973e+00  -2.9047009485818260e+00  -2.1658462422527451e+00  -1.3722160740374851e+00  6.5297316795895621e-02  9.7884481896333664e-01  1.9591721414899117e+00  3.1253147876913348e+00  3.8721335999919293e+00  5.0179849473276201e+00  5.8368923032805036e+00  6.3824668313450612e+00  6.7770865249882926e+00  7.0603557257519780e+00  7.2563089699957715e+00  7.3789359949358824e+00  7.4443794730974160e+00  7.4715102574544279e+00  7.4784580746948661e+00  7.4785404634882653e+00  -9.5781257415596788e-01  -9.5847586920393557e-01  -9.6682060408124404e-01  -9.9843925828353774e-01  -1.0982408996456705e+00  -1.2817364809128227e+00  -1.6210775898523606e+00  -2.0947949078072381e+00  -2.3795515442309423e+00  -2.8269944333722790e+00  -3.1526788258886964e+00  -3.3891078114245854e+00  -4.4047827993570783e+00  -4.6613905188012739e+00  -4.8832882800670747e+00  -5.4811742892994664e+00  -6.0395875411648081e+00  -6.3205958769243908e+00  -6.5659209753296599e+00  -6.6862407368169441e+00  -6.7798525619955949e+00  -6.7536264574916469e+00  -6.6405978355542867e+00  -6.4801422287794619e+00  -6.1652274172390289e+00  -5.8689980514030360e+00  -5.5213711148378621e+00  -4.6978181836288115e+00  -4.1163792550975815e+00  -3.4309585589243010e+00  -2.4547209018484528e+00  -1.7215375517456246e+00  -9.2628581673050270e-01  5.4442376072784393e-01  1.4549445260509177e+00  2.4436611672928445e+00  3.6240536328190442e+00  4.3849875264102565e+00  5.3719959290113231e+00  6.3357976522232891e+00  6.8850202629734456e+00  7.2949168793049912e+00  7.5894253980609294e+00  7.7986068933060624e+00  7.9333284443812335e+00  8.0065849637359037e+00  8.0356920902531161e+00  8.0409868999924150e+00  8.0399903196139579e+00  -2.7540605903994719e-01  -2.7734023758422871e-01  -2.8305943377858550e-01  -3.0732595632848952e-01  -3.6731422028607263e-01  -4.9155929997487541e-01  -7.3067284336710947e-01  -1.2071895261348231e+00  -1.6616325090082731e+00  -1.9331750137474129e+00  -2.4596737454442148e+00  -2.8015793927201447e+00  -2.9831497919123975e+00  -4.0264503190467016e+00  -4.2632648182692741e+00  -4.5157150361041456e+00  -5.1585854894036318e+00  -5.5940301674543793e+00  -5.8722626885987097e+00  -6.0497886677087855e+00  -6.1055300167978057e+00  -6.0764794242701896e+00  -5.9968976816354553e+00  -5.8680875030104378e+00  -5.5989775779597490e+00  -5.3343167807605836e+00  -5.0112671335710326e+00  -4.2194349496386696e+00  -3.6576627342885755e+00  -2.9820621910809044e+00  -2.0112100340892884e+00  -1.2776194826108840e+00  -4.7282090486477429e-01  1.0496634356015146e+00  1.9288615349052662e+00  2.9054100629532638e+00  4.1144963866461568e+00  4.9069417503184081e+00  5.9855045003381875e+00  6.9582399530787695e+00  7.6621127440085068e+00  8.0825033150066989e+00  8.3922956738083734e+00  8.6158502684581180e+00  8.7603790073319949e+00  8.8396895965694089e+00  8.8726723808199353e+00  8.8812637820141056e+00  8.8828067521849903e+00  4.0149055395434141e-01  4.0182260890235844e-01  3.9680010926662845e-01  3.7489720581826724e-01  3.2213519488698134e-01  2.3156556922937888e-01  1.2807412188512454e-01  -9.9125355053657507e-02  -5.5522474192023730e-01  -1.0818819966462732e+00  -1.3785619613604434e+00  -1.9900401275084885e+00  -2.2618945610861445e+00  -2.5528123196315953e+00  -3.5378879340506351e+00  -3.8438677786734177e+00  -4.1266584054284809e+00  -4.7289667500052337e+00  -5.0199353935680833e+00  -5.3229885377401098e+00  -5.4182415955887544e+00  -5.3968554162315474e+00  -5.3641153517378823e+00  -5.2708699281112352e+00  -5.0506482399384849e+00  -4.8175717422651188e+00  -4.5198685802969480e+00  -3.7627471858663286e+00  -3.2174699674564176e+00  -2.5489656777147376e+00  -1.5780227195529948e+00  -8.3789928520584456e-01  -1.6785921371505957e-02  1.5729503651205829e+00  2.4674781570356821e+00  3.4138336713086934e+00  4.6477921523173400e+00  5.5170968959809379e+00  6.6677490512000297e+00  7.5284121259312862e+00  8.2387085099020165e+00  8.6566997613588015e+00  8.9683942419617182e+00  9.1922978841232243e+00  9.3391389868243468e+00  9.4204300845362514e+00  9.4539724931230662e+00  9.4618838268827421e+00  9.4612945947386322e+00  1.4114645176813974e+00  1.4135106093524581e+00  1.4099118950491827e+00  1.3924984184152245e+00  1.3484239677053582e+00  1.2626252802427831e+00  1.1057238733995052e+00  8.6930972543173290e-01  5.7351863499694344e-01  2.4375611055065471e-01  -4.4816540288986972e-01  -9.1967841724041444e-01  -1.3604784128244103e+00  -1.5925789837351776e+00  -2.2897271316456185e+00  -2.7529366588001380e+00  -2.9503744764935682e+00  -3.3716761575284400e+00  -3.9438875293275770e+00  -4.2124460194641031e+00  -4.5018054425575560e+00  -4.6982707865140769e+00  -4.7435259942269727e+00  -4.6918109955210765e+00  -4.5253061578186760e+00  -4.3236859656921709e+00  -4.0517096609132741e+00  -3.3310804444848099e+00  -2.7990024608003723e+00  -2.1344740980349601e+00  -1.1582184007419611e+00  -4.0653795233464746e-01  4.3753403139934871e-01  2.1051735877470610e+00  3.0352577284868985e+00  3.9994126117139497e+00  5.1351355136042045e+00  6.2221460232605637e+00  7.2730522316484150e+00  8.0861829101622664e+00  8.7452396837538586e+00  9.2032332332137869e+00  9.5263726637788952e+00  9.7592765575508054e+00  9.9197965164678354e+00  1.0013126721991993e+01  1.0052811259199270e+01  1.0059064161010705e+01  1.0054160713507335e+01  2.1084069012405977e+00  2.1063665383622499e+00  2.1011044103037215e+00  2.0812250273279611e+00  2.0316719677023625e+00  1.9381069340131440e+00  1.7918137892057302e+00  1.5807608591678222e+00  1.3190971238001967e+00  1.0236861396027448e+00  6.8053335642656188e-01  7.9012011599116735e-02  -2.9567401082489797e-01  -6.0633071984727449e-01  -9.5498552411193782e-01  -1.8699634268092944e+00  -2.1761697491921170e+00  -2.5156264812226969e+00  -3.0401106372911384e+00  -3.3680134410193476e+00  -3.7100037905175305e+00  -4.0614505436435859e+00  -4.1376962673017426e+00  -4.1380181226759047e+00  -4.0272051366421238e+00  -3.8562396200516358e+00  -3.6098421263154488e+00  -2.9264422755239390e+00  -2.4045906388602938e+00  -1.7410349620288350e+00  -7.5508941794352069e-01  1.1685399654354982e-02  8.8301240244209089e-01  2.6311576281604077e+00  3.5916783430614423e+00  4.5409433132615513e+00  5.6065183089657928e+00  7.1193244229774848e+00  8.0811545688178761e+00  8.8455923508036420e+00  9.5457063166830523e+00  1.0104897439970967e+01  1.0485425977315510e+01  1.0737139768284159e+01  1.0890669365499651e+01  1.0968245488995533e+01  1.0995027629431387e+01  1.1001348744674313e+01  1.1009439076097445e+01  2.7906545032317163e+00  2.7912788196832863e+00  2.7872888356543633e+00  2.7656134461647586e+00  2.7104103154166319e+00  2.6084996883218001e+00  2.4506166903727684e+00  2.2325062039525370e+00  1.9582784110333518e+00  1.6616894611075672e+00  1.3242115327754060e+00  8.5709812429005494e-01  3.8877390462720962e-01  7.1755222778472474e-02  -1.9443250587663766e-01  -9.6480801019170925e-01  -1.5166517092958376e+00  -1.8759696185627099e+00  -2.3577067013098159e+00  -2.7016449984952171e+00  -3.0161782967282047e+00  -3.4605027724940780e+00  -3.5728101979784501e+00  -3.6214466333887896e+00  -3.5603736639149512e+00  -3.4185771292897229e+00  -3.1965689655806524e+00  -2.5503259003481191e+00  -2.0366010347682715e+00  -1.3715483770362942e+00  -3.7276794190073248e-01  4.1142933862330427e-01  1.3119850902995336e+00  3.1270587270798931e+00  4.1038637661709050e+00  5.0338704580686002e+00  6.0327516429753505e+00  7.6153751442152915e+00  8.5579402673441454e+00  9.2865267895732355e+00  9.9627441690370233e+00  1.0492094240502842e+01  1.0854863908691083e+01  1.1104153375521257e+01  1.1260370658134514e+01  1.1344091265276154e+01  1.1378969907070534e+01  1.1387059928854447e+01  1.1382773810171411e+01  3.7316932594856418e+00  3.7318525019547257e+00  3.7253163881531610e+00  3.7002785122983011e+00  3.6411256355721990e+00  3.5333615591869183e+00  3.3676567520553817e+00  3.1407710752742979e+00  2.8609936256364854e+00  2.5488108923247195e+00  2.2077236238997906e+00  1.7752070179859403e+00  1.3230076847902583e+00  9.5889956695015333e-01  5.9157987967093562e-01  4.3834994955944458e-02  -7.8456688419613840e-01  -1.2363101540545254e+00  -1.7485744814354198e+00  -2.1326780814149271e+00  -2.4438134708513162e+00  -2.9126054408771975e+00  -3.0611863581528933e+00  -3.1452327849268547e+00  -3.1279439536016520e+00  -3.0126642962851404e+00  -2.8127154577835052e+00  -2.2036887544393040e+00  -1.6980030113275508e+00  -1.0302731741792774e+00  -1.7077136120942974e-02  7.8744216559759173e-01  1.7196052830473225e+00  3.5839245150634365e+00  4.5640650376900842e+00  5.4760271900163762e+00  6.3343897761989707e+00  8.0415925889796753e+00  8.9740492433066965e+00  9.7074344455339379e+00  1.0348960782881864e+01  1.0877708311571894e+01  1.1265223496181484e+01  1.1530629845820449e+01  1.1695895451771673e+01  1.1783522489420736e+01  1.1817562490552028e+01  1.1823606037552477e+01  1.1823037538861579e+01  4.4515233042610545e+00  4.4511103859739229e+00  4.4458012761572050e+00  4.4220753649014846e+00  4.3620548259722387e+00  4.2512369893755109e+00  4.0809834824437603e+00  3.8495733935640519e+00  3.5637920994034662e+00  3.2380773103027853e+00  2.8791107682797650e+00  2.4703438529778436e+00  2.0251622176679569e+00  1.6251007701006754e+00  1.2349216003508647e+00  7.4978145098057791e-01  -4.0715324635956548e-02  -5.9217662317908992e-01  -1.1453263628144745e+00  -1.5651700660643655e+00  -1.9019500988957216e+00  -2.4038468213648230e+00  -2.5878867495169864e+00  -2.7057424858710366e+00  -2.7299549445050171e+00  -2.6383174205853956e+00  -2.4586436492620085e+00  -1.8872905725883355e+00  -1.3918064798708543e+00  -7.2150502152203932e-01  3.0651378030348797e-01  1.1375909553535675e+00  2.1102626502906223e+00  4.0046123913754066e+00  4.9826675009398596e+00  5.8746363443766043e+00  6.6942519506866303e+00  8.5762968892035509e+00  9.4047237309660900e+00  1.0160407034885845e+01  1.0788704739127830e+01  1.1306031291366049e+01  1.1710019309631926e+01  1.1990570758144024e+01  1.2164557106275106e+01  1.2257170859532975e+01  1.2294455437436088e+01  1.2304044610790919e+01  1.2306816460466180e+01  5.1497357510571202e+00  5.1462345778707457e+00  5.1363621860733231e+00  5.1056091830851793e+00  5.0368865906083533e+00  4.9155701858597745e+00  4.7342790090661762e+00  4.4924662895213405e+00  4.1961931703648885e+00  3.8576953328372539e+00  3.4866246335980313e+00  3.0808859866456109e+00  2.6507128794313735e+00  2.2403157853416356e+00  1.8395848736021356e+00  1.4340560249429912e+00  7.3926324768595630e-01  7.9159908916650618e-02  -4.9680359316189737e-01  -9.9110979689256951e-01  -1.3702845310674243e+00  -1.9185572054222046e+00  -2.1415774349157903e+00  -2.2952602568906717e+00  -2.3578583412138276e+00  -2.2923926526869085e+00  -2.1250384780498708e+00  -1.5929536055465332e+00  -1.1147053743050273e+00  -4.4300525490607140e-01  5.9730729873581700e-01  1.4655389516555188e+00  2.5093683133991389e+00  4.3926450750503268e+00  5.3673601316700443e+00  6.2456356661986128e+00  7.0535748024479057e+00  8.9656481316861463e+00  9.7095270236272242e+00  1.0370515754863426e+01  1.1008551118726245e+01  1.1548395329328669e+01  1.1966897423461448e+01  1.2253267991061062e+01  1.2430261629866690e+01  1.2522365448382418e+01  1.2558652234710827e+01  1.2567537145594162e+01  1.2567282388971282e+01  6.1437963279967525e+00  6.1502890666085950e+00  6.1469265375026119e+00  6.1207589084605036e+00  6.0586764936140804e+00  5.9466947318293197e+00  5.7751132964766292e+00  5.5418750470835603e+00  5.2521203066223778e+00  4.9153808773329510e+00  4.5421594521990141e+00  4.1425990978733553e+00  3.7284100051758164e+00  3.3106161256953111e+00  2.8885088902340681e+00  2.4275451889086117e+00  1.8670932776560676e+00  1.1509697815899489e+00  2.0887876180139753e-01  -3.7550448365708455e-01  -8.2727576653719881e-01  -1.4315646870341976e+00  -1.7070735944570123e+00  -1.9010826869288111e+00  -2.0185926402607914e+00  -1.9699625152379219e+00  -1.7761148878137849e+00  -1.3213711362931166e+00  -8.4722768644193613e-01  -1.5245366726492410e-01  9.0146400392861215e-01  1.8208691836920743e+00  2.9911999471267516e+00  4.7299498933119981e+00  5.7245817725580173e+00  6.5935961519530935e+00  7.3788810817699266e+00  9.2673348938132598e+00  9.9292107672675840e+00  1.0496416014379884e+01  1.1136350624947617e+01  1.1874074249839177e+01  1.2314158726833357e+01  1.2621357355797377e+01  1.2814178116545587e+01  1.2915545958720580e+01  1.2954194556760859e+01  1.2957380436935276e+01  1.2949063947333896e+01  6.7472153719095616e+00  6.7451250309995974e+00  6.7370944812381381e+00  6.7085106824789120e+00  6.6386866385578989e+00  6.5120116324015029e+00  6.3215992748322627e+00  6.0683391824011697e+00  5.7590107342240247e+00  5.4039782103248513e+00  5.0146673004039082e+00  4.6021888882834396e+00  4.1773512021247372e+00  3.7493455409987058e+00  3.3197746427743904e+00  2.8788581288471682e+00  2.4027761157272720e+00  1.8820595963698512e+00  1.2058586657579891e+00  3.7097493561873895e-01  -2.2873901328832563e-01  -8.8148161263225711e-01  -1.2458834893940853e+00  -1.4744839942245882e+00  -1.5996437929776166e+00  -1.5841472232127853e+00  -1.3782494448524136e+00  -9.3200161439586182e-01  