<?xml version="1.0"?>
<VTKFile type="UnstructuredGrid"  version="0.1"  >
<UnstructuredGrid>
<Piece  NumberOfPoints="2401" NumberOfCells="4608">
<Points>
<DataArray  type="Float64"  NumberOfComponents="3"  format="ascii">0 0 0  0.001070538380698371 0 0  0.004277569313095364 0 0  0.009607359798386061 0 0  0.01703708685546806 0 0  0.02653493525245065 0 0  0.03806023374436157 0 0  0.05156362923366253 0 0  0.06698729810778931 0 0  0.08426519384873815 0 0  0.1033233298543955 0 0  0.1240800962605269 0 0  0.1464466094067445 0 0  0.1703270924499866 0 0  0.1956192854956637 0 0  0.2222148834902257 0 0  0.2500000000000299 0 0  0.2788556548905322 0 0  0.308658283817491 0 0  0.339280267348458 0 0  0.3705904774487813 0 0  0.4024548389919803 0 0  0.4347369038900211 0 0  0.467298435384978 0 0  0.5000000000000517 0 0  0.5327015646151253 0 0  0.5652630961100813 0 0  0.5975451610081212 0 0  0.6294095225513188 0 0  0.6607197326516399 0 0  0.6913417161826045 0 0  0.7211443451095605 0 0  0.7500000000000597 0 0  0.7777851165098603 0 0  0.8043807145044185 0 0  0.829672907550091 0 0  0.8535533905933287 0 0  0.8759199037395413 0 0  0.8966766701456674 0 0  0.9157348061513193 0 0  0.9330127018922625 0 0  0.9484363707663832 0 0  0.961939766255678 0 0  0.9734650647475827 0 0  0.9829629131445586 0 0  0.9903926402016341 0 0  0.9957224306869181 0 0  0.9989294616193084 0 0  1 0 0  0 0.02083333333333333 0  0.001070538380698371 0.02083333333333333 0  0.004277569313095364 0.02083333333333333 0  0.009607359798386061 0.02083333333333333 0  0.01703708685546806 0.02083333333333333 0  0.02653493525245065 0.02083333333333333 0  0.03806023374436157 0.02083333333333333 0  0.05156362923366253 0.02083333333333333 0  0.06698729810778931 0.02083333333333333 0  0.08426519384873815 0.02083333333333333 0  0.1033233298543955 0.02083333333333333 0  0.1240800962605269 0.02083333333333333 0  0.1464466094067445 0.02083333333333333 0  0.1703270924499866 0.02083333333333333 0  0.1956192854956637 0.02083333333333333 0  0.2222148834902257 0.02083333333333333 0  0.2500000000000299 0.02083333333333333 0  0.2788556548905322 0.02083333333333333 0  0.308658283817491 0.02083333333333333 0  0.339280267348458 0.02083333333333333 0  0.3705904774487813 0.02083333333333333 0  0.4024548389919803 0.02083333333333333 0  0.4347369038900211 0.02083333333333333 0  0.467298435384978 0.02083333333333333 0  0.5000000000000517 0.02083333333333333 0  0.5327015646151253 0.02083333333333333 0  0.5652630961100813 0.02083333333333333 0  0.5975451610081212 0.02083333333333333 0  0.6294095225513188 0.02083333333333333 0  0.6607197326516399 0.02083333333333333 0  0.6913417161826045 0.02083333333333333 0  0.7211443451095605 0.02083333333333333 0  0.7500000000000597 0.02083333333333333 0  0.7777851165098603 0.02083333333333333 0  0.8043807145044185 0.02083333333333333 0  0.829672907550091 0.02083333333333333 0  0.8535533905933287 0.02083333333333333 0  0.8759199037395413 0.02083333333333333 0  0.8966766701456674 0.02083333333333333 0  0.9157348061513193 0.02083333333333333 0  0.9330127018922625 0.02083333333333333 0  0.9484363707663832 0.02083333333333333 0  0.961939766255678 0.02083333333333333 0  0.9734650647475827 0.02083333333333333 0  0.9829629131445586 0.02083333333333333 0  0.9903926402016341 0.02083333333333333 0  0.9957224306869181 0.02083333333333333 0  0.9989294616193084 0.02083333333333333 0  1 0.02083333333333333 0  0 0.04166666666666666 0  0.001070538380698371 0.04166666666666666 0  0.004277569313095364 0.04166666666666666 0  0.009607359798386061 0.04166666666666666 0  0.01703708685546806 0.04166666666666666 0  0.02653493525245065 0.04166666666666666 0  0.03806023374436157 0.04166666666666666 0  0.05156362923366253 0.04166666666666666 0  0.06698729810778931 0.04166666666666666 0  0.08426519384873815 0.04166666666666666 0  0.1033233298543955 0.04166666666666666 0  0.1240800962605269 0.04166666666666666 0  0.1464466094067445 0.04166666666666666 0  0.1703270924499866 0.04166666666666666 0  0.1956192854956637 0.04166666666666666 0  0.2222148834902257 0.04166666666666666 0  0.2500000000000299 0.04166666666666666 0  0.2788556548905322 0.04166666666666666 0  0.308658283817491 0.04166666666666666 0  0.339280267348458 0.04166666666666666 0  0.3705904774487813 0.04166666666666666 0  0.4024548389919803 0.04166666666666666 0  0.4347369038900211 0.04166666666666666 0  0.467298435384978 0.04166666666666666 0  0.5000000000000517 0.04166666666666666 0  0.5327015646151253 0.04166666666666666 0  0.5652630961100813 0.04166666666666666 0  0.5975451610081212 0.04166666666666666 0  0.6294095225513188 0.04166666666666666 0  0.6607197326516399 0.04166666666666666 0  0.6913417161826045 0.04166666666666666 0  0.7211443451095605 0.04166666666666666 0  0.7500000000000597 0.04166666666666666 0  0.7777851165098603 0.04166666666666666 0  0.8043807145044185 0.04166666666666666 0  0.829672907550091 0.04166666666666666 0  0.8535533905933287 0.04166666666666666 0  0.8759199037395413 0.04166666666666666 0  0.8966766701456674 0.04166666666666666 0  0.9157348061513193 0.04166666666666666 0  0.9330127018922625 0.04166666666666666 0  0.9484363707663832 0.04166666666666666 0  0.961939766255678 0.04166666666666666 0  0.9734650647475827 0.04166666666666666 0  0.9829629131445586 0.04166666666666666 0  0.9903926402016341 0.04166666666666666 0  0.9957224306869181 0.04166666666666666 0  0.9989294616193084 0.04166666666666666 0  1 0.04166666666666666 0  0 0.0625 0  0.001070538380698371 0.0625 0  0.004277569313095364 0.0625 0  0.009607359798386061 0.0625 0  0.01703708685546806 0.0625 0  0.02653493525245065 0.0625 0  0.03806023374436157 0.0625 0  0.05156362923366253 0.0625 0  0.06698729810778931 0.0625 0  0.08426519384873815 0.0625 0  0.1033233298543955 0.0625 0  0.1240800962605269 0.0625 0  0.1464466094067445 0.0625 0  0.1703270924499866 0.0625 0  0.1956192854956637 0.0625 0  0.2222148834902257 0.0625 0  0.2500000000000299 0.0625 0  0.2788556548905322 0.0625 0  0.308658283817491 0.0625 0  0.339280267348458 0.0625 0  0.3705904774487813 0.0625 0  0.4024548389919803 0.0625 0  0.4347369038900211 0.0625 0  0.467298435384978 0.0625 0  0.5000000000000517 0.0625 0  0.5327015646151253 0.0625 0  0.5652630961100813 0.0625 0  0.5975451610081212 0.0625 0  0.6294095225513188 0.0625 0  0.6607197326516399 0.0625 0  0.6913417161826045 0.0625 0  0.7211443451095605 0.0625 0  0.7500000000000597 0.0625 0  0.7777851165098603 0.0625 0  0.8043807145044185 0.0625 0  0.829672907550091 0.0625 0  0.8535533905933287 0.0625 0  0.8759199037395413 0.0625 0  0.8966766701456674 0.0625 0  0.9157348061513193 0.0625 0  0.9330127018922625 0.0625 0  0.9484363707663832 0.0625 0  0.961939766255678 0.0625 0  0.9734650647475827 0.0625 0  0.9829629131445586 0.0625 0  0.9903926402016341 0.0625 0  0.9957224306869181 0.0625 0  0.9989294616193084 0.0625 0  1 0.0625 0  0 0.08333333333333333 0  0.001070538380698371 0.08333333333333333 0  0.004277569313095364 0.08333333333333333 0  0.009607359798386061 0.08333333333333333 0  0.01703708685546806 0.08333333333333333 0  0.02653493525245065 0.08333333333333333 0  0.03806023374436157 0.08333333333333333 0  0.05156362923366253 0.08333333333333333 0  0.06698729810778931 0.08333333333333333 0  0.08426519384873815 0.08333333333333333 0  0.1033233298543955 0.08333333333333333 0  0.1240800962605269 0.08333333333333333 0  0.1464466094067445 0.08333333333333333 0  0.1703270924499866 0.08333333333333333 0  0.1956192854956637 0.08333333333333333 0  0.2222148834902257 0.08333333333333333 0  0.2500000000000299 0.08333333333333333 0  0.2788556548905322 0.08333333333333333 0  0.308658283817491 0.08333333333333333 0  0.339280267348458 0.08333333333333333 0  0.3705904774487813 0.08333333333333333 0  0.4024548389919803 0.08333333333333333 0  0.4347369038900211 0.08333333333333333 0  0.467298435384978 0.08333333333333333 0  0.5000000000000517 0.08333333333333333 0  0.5327015646151253 0.08333333333333333 0  0.5652630961100813 0.08333333333333333 0  0.5975451610081212 0.08333333333333333 0  0.6294095225513188 0.08333333333333333 0  0.6607197326516399 0.08333333333333333 0  0.6913417161826045 0.08333333333333333 0  0.7211443451095605 0.08333333333333333 0  0.7500000000000597 0.08333333333333333 0  0.7777851165098603 0.08333333333333333 0  0.8043807145044185 0.08333333333333333 0  0.829672907550091 0.08333333333333333 0  0.8535533905933287 0.08333333333333333 0  0.8759199037395413 0.08333333333333333 0  0.8966766701456674 0.08333333333333333 0  0.9157348061513193 0.08333333333333333 0  0.9330127018922625 0.08333333333333333 0  0.9484363707663832 0.08333333333333333 0  0.961939766255678 0.08333333333333333 0  0.9734650647475827 0.08333333333333333 0  0.9829629131445586 0.08333333333333333 0  0.9903926402016341 0.08333333333333333 0  0.9957224306869181 0.08333333333333333 0  0.9989294616193084 0.08333333333333333 0  1 0.08333333333333333 0  0 0.1041666666666667 0  0.001070538380698371 0.1041666666666667 0  0.004277569313095364 0.1041666666666667 0  0.009607359798386061 0.1041666666666667 0  0.01703708685546806 0.1041666666666667 0  0.02653493525245065 0.1041666666666667 0  0.03806023374436157 0.1041666666666667 0  0.05156362923366253 0.1041666666666667 0  0.06698729810778931 0.1041666666666667 0  0.08426519384873815 0.1041666666666667 0  0.1033233298543955 0.1041666666666667 0  0.1240800962605269 0.1041666666666667 0  0.1464466094067445 0.1041666666666667 0  0.1703270924499866 0.1041666666666667 0  0.1956192854956637 0.1041666666666667 0  0.2222148834902257 0.1041666666666667 0  0.2500000000000299 0.1041666666666667 0  0.2788556548905322 0.1041666666666667 0  0.308658283817491 0.1041666666666667 0  0.339280267348458 0.1041666666666667 0  0.3705904774487813 0.1041666666666667 0  0.4024548389919803 0.1041666666666667 0  0.4347369038900211 0.1041666666666667 0  0.467298435384978 0.1041666666666667 0  0.5000000000000517 0.1041666666666667 0  0.5327015646151253 0.1041666666666667 0  0.5652630961100813 0.1041666666666667 0  0.5975451610081212 0.1041666666666667 0  0.62
[...]
<PointData  Scalars="f_3378619"> 
<DataArray  type="Float64"  Name="f_3378619"  format="ascii">2.1895206271874557e+01  2.1912901175764858e+01  2.1924189903041803e+01  2.2142646174905167e+01  2.2271318107162021e+01  2.2395293692641754e+01  2.2701538141612541e+01  2.2976701192348578e+01  2.3226486298183747e+01  2.3491417574712887e+01  2.3656458298474334e+01  2.3730480854784197e+01  2.3661853892096190e+01  2.3494948545132640e+01  2.3193432125520122e+01  2.2408513139273538e+01  2.1935442963370072e+01  2.1311674773720132e+01  2.0287860591636708e+01  1.9615639703995026e+01  1.8830117091874850e+01  1.7375109513403199e+01  1.6596678617242734e+01  1.5742952080623127e+01  1.4516820825199009e+01  1.3769256284344552e+01  1.2949403400032894e+01  1.1837291277574923e+01  1.1187044870816736e+01  1.0533085616468272e+01  9.7675161207394243e+00  9.3024960892130331e+00  8.8335447114720189e+00  8.3861504010438299e+00  7.9693592045662811e+00  7.7177553565107893e+00  7.5803437149999384e+00  7.4915242372168729e+00  7.4947409490061414e+00  7.5458287129895583e+00  7.6079516254008102e+00  7.6690958475010618e+00  7.7219863564270428e+00  7.7566661395937997e+00  7.7765984975555869e+00  7.7862714260053520e+00  7.7904257471168075e+00  7.7938087148943671e+00  7.8017994499269436e+00  2.2059898608856482e+01  2.2059348084804231e+01  2.2070180009554708e+01  2.2268064571893767e+01  2.2412029759940115e+01  2.2558598493881284e+01  2.2850880151305056e+01  2.3111125025226059e+01  2.3370590222548962e+01  2.3665155319646317e+01  2.3827266760950305e+01  2.3866454998386441e+01  2.3769109955648300e+01  2.3601791344900846e+01  2.3321280955281448e+01  2.2578904943097026e+01  2.2022196104856093e+01  2.1351009873375219e+01  2.0362207452349431e+01  1.9649555074040428e+01  1.8852572333589819e+01  1.7424589151820129e+01  1.6622294168564160e+01  1.5737562288592510e+01  1.4553639905164545e+01  1.3780017000832386e+01  1.2961563570473002e+01  1.1836900051740813e+01  1.1187253234779829e+01  1.0526891026177680e+01  9.7717349023942930e+00  9.3100662287957991e+00  8.8518803648433533e+00  8.3879417312907325e+00  8.0405148068953274e+00  7.7675724870899829e+00  7.6184732050521635e+00  7.5558964688126231e+00  7.6044100156796359e+00  7.6915971284871683e+00  7.7840877433528792e+00  7.8705755086317097e+00  7.9422763818119284e+00  7.9942601241856952e+00  8.0271050327573938e+00  8.0438987419133685e+00  8.0502105434682356e+00  8.0506342552060470e+00  8.0464668684595040e+00  2.2364018880668144e+01  2.2364578400675718e+01  2.2388106147807690e+01  2.2576259049535008e+01  2.2739045120607010e+01  2.2909541031346933e+01  2.3213742908672341e+01  2.3482887237365880e+01  2.3758187210554500e+01  2.4077817665011235e+01  2.4210588867797131e+01  2.4298447420927065e+01  2.4020770197421314e+01  2.3823554435498615e+01  2.3558534009871959e+01  2.3009570646892190e+01  2.2282019497631460e+01  2.1550099695782773e+01  2.0515965765330531e+01  1.9768241487622550e+01  1.8951242481579964e+01  1.7521799042997269e+01  1.6691762451292306e+01  1.5774814088362117e+01  1.4608613109540727e+01  1.3826709867210084e+01  1.3009401057775946e+01  1.1842395284992804e+01  1.1201346295421008e+01  1.0542884553403089e+01  9.7940033939951565e+00  9.3472770874516762e+00  8.9093520525159740e+00  8.4276375661287677e+00  8.1780607589996404e+00  7.9114581235306485e+00  7.7557200921869756e+00  7.7322385750930795e+00  7.8202721932529000e+00  7.9429310246146345e+00  8.0653238969955741e+00  8.1759793814737094e+00  8.2667317803463121e+00  8.3352091096740288e+00  8.3816089069129607e+00  8.4077639229198766e+00  8.4189891082790727e+00  8.4216068409530251e+00  8.4221192453666927e+00  2.2822362734757384e+01  2.2823382963132040e+01  2.2846459159399053e+01  2.2964323102684173e+01  2.3180225999221033e+01  2.3386824759453205e+01  2.3694972646832142e+01  2.3984830767456003e+01  2.4264441655184836e+01  2.4521354296301869e+01  2.4624786665009079e+01  2.4702887057537307e+01  2.4717731196664154e+01  2.4130284172696644e+01  2.3805414008740204e+01  2.3252114693110276e+01  2.2682401055576104e+01  2.1837719507838521e+01  2.0755308227610190e+01  1.9945078086659752e+01  1.9099164766975097e+01  1.7659364158292689e+01  1.6787545549076704e+01  1.5846246272567026e+01  1.4682210452636296e+01  1.3891181912285388e+01  1.3075414237773629e+01  1.1875752970693451e+01  1.1236383858125693e+01  1.0582685717817755e+01  9.8516609327424796e+00  9.4196114339868284e+00  8.9937933372462631e+00  8.5240442752032468e+00  8.3423264975616966e+00  8.1655325030507502e+00  8.0499186459738485e+00  8.0324944188959471e+00  8.0945895677033164e+00  8.2049657066277764e+00  8.3531300801999091e+00  8.4969663826649136e+00  8.6226318327224636e+00  8.7199759103916925e+00  8.7859502044321474e+00  8.8238115951005156e+00  8.8403254461743916e+00  8.8448820986290269e+00  8.8465843837610727e+00  2.3428347312902282e+01  2.3424780713551922e+01  2.3434121924772953e+01  2.3473339738811330e+01  2.3624544513882714e+01  2.3906543122238276e+01  2.4180551692458273e+01  2.4461351410693887e+01  2.4732117652436706e+01  2.4976158339177449e+01  2.5001650170452503e+01  2.5021245073048302e+01  2.5010498392987639e+01  2.4918937810469927e+01  2.4255495032616071e+01  2.3592096967799844e+01  2.2935650710739598e+01  2.2204544646670403e+01  2.1011665954018554e+01  2.0178641565085734e+01  1.9288580410629336e+01  1.7799852000271745e+01  1.6896603581093451e+01  1.5935861785198414e+01  1.4757978868736654e+01  1.3964130719784066e+01  1.3152832563591893e+01  1.1921978526816595e+01  1.1288552854255551e+01  1.0644581541747220e+01  9.9347960975676344e+00  9.5222143604343064e+00  9.1153646520970515e+00  8.6669203516418598e+00  8.5305611360285614e+00  8.4316614769510263e+00  8.4162801579923237e+00  8.4242164806207516e+00  8.5885009181008787e+00  8.8563626260959847e+00  9.0815210745239376e+00  9.2684651290837525e+00  9.4078711969589826e+00  9.5070847466548134e+00  9.5703330273913085e+00  9.6036179913094184e+00  9.6162489554143793e+00  9.6181927128643654e+00  9.6166666289738512e+00  2.3854165902596343e+01  2.3857725408544770e+01  2.3870851235082402e+01  2.3923322362169348e+01  2.4061165265098747e+01  2.4312420130766135e+01  2.4595852826862419e+01  2.4845529422320933e+01  2.5103764503062617e+01  2.5320744987949897e+01  2.5503385674431932e+01  2.5366977543773778e+01  2.5286897922557621e+01  2.5167663877421283e+01  2.4965010805499329e+01  2.4065983495870455e+01  2.3271063615794333e+01  2.2429898449803233e+01  2.1268686582477905e+01  2.0397914092878533e+01  1.9489559583349756e+01  1.7920371664361024e+01  1.6999377875713947e+01  1.6024594174994885e+01  1.4830228823507733e+01  1.4036756307672505e+01  1.3229661016434850e+01  1.1977592077866701e+01  1.1354229904100309e+01  1.0723912134440774e+01  1.0040763765296084e+01  9.6540912732032442e+00  9.2728578050041328e+00  8.8576786603376885e+00  8.7579776054539469e+00  8.7045880299469989e+00  8.7690321802265316e+00  8.8561079239862934e+00  9.0438078239757775e+00  9.3623715313072680e+00  9.6187178050296840e+00  9.8260644015957688e+00  9.9855116642992687e+00  1.0102555191998770e+01  1.0179202800550408e+01  1.0221871886647165e+01  1.0240464672438945e+01  1.0245597099842614e+01  1.0246020697952735e+01  2.4390263158633704e+01  2.4388982899980665e+01  2.4397253339385639e+01  2.4437306343871576e+01  2.4538951844448949e+01  2.4700018272440474e+01  2.4926900173572552e+01  2.5199540188093639e+01  2.5428324966767594e+01  2.5633177725878419e+01  2.5769535160659757e+01  2.5894796647702229e+01  2.5585364449795037e+01  2.5386436160798294e+01  2.5145501088141707e+01  2.4454084398524159e+01  2.3512546474349033e+01  2.2585976009348297e+01  2.1438991692645011e+01  2.0551191499427492e+01  1.9654574814806608e+01  1.8003687035772991e+01  1.7081267845603683e+01  1.6098892480012434e+01  1.4891994105809324e+01  1.4101802481378385e+01  1.3300490388775668e+01  1.2038236878844909e+01  1.1428702313973051e+01  1.0816945517138018e+01  1.0167036795191748e+01  9.8123746837968646e+00  9.4637732233920193e+00  9.1077601279532985e+00  9.0413819305349872e+00  9.0153986951057643e+00  9.1396459935116958e+00  9.2996699112137993e+00  9.5501337580566137e+00  9.8438806643281112e+00  1.0132512461186343e+01  1.0374427086238175e+01  1.0559334000096094e+01  1.0698468222093741e+01  1.0792322965799725e+01  1.0845265600583669e+01  1.0866714649107118e+01  1.0870848535400865e+01  1.0870809997050520e+01  2.4800037242531751e+01  2.4798264070466292e+01  2.4805054894609576e+01  2.4836015227028390e+01  2.4909053322286017e+01  2.5028185856321155e+01  2.5208774723416091e+01  2.5502825553002435e+01  2.5772853088921487e+01  2.5982530928316173e+01  2.6087414311819192e+01  2.6096558431353266e+01  2.6083947675265382e+01  2.5632666368582726e+01  2.5266978731632516e+01  2.4746841756970930e+01  2.3774734522363460e+01  2.2703396811477443e+01  2.1586393443368149e+01  2.0635247330700864e+01  1.9745417395628301e+01  1.8046880369664532e+01  1.7135160367470544e+01  1.6150383264760041e+01  1.4938819141141954e+01  1.4154823989892801e+01  1.3361551288610528e+01  1.2101030959155349e+01  1.1509319817533063e+01  1.0920964730266959e+01  1.0311477645327999e+01  9.9944606305222603e+00  9.6872260506880963e+00  9.4259970811680578e+00  9.4076444946293432e+00  9.3930016180303486e+00  9.5510686852087705e+00  9.7623764657761178e+00  1.0178491567252030e+01  1.0631521670840863e+01  1.1008496884057204e+01  1.1293463666072542e+01  1.1518016269598588e+01  1.1687510190990979e+01  1.1800998255539143e+01  1.1865052131479143e+01  1.1892652955330231e+01  1.1900183275622993e+01  1.1900806594315753e+01  2.5105033323764854e+01  2.5107664080806089e+01  2.5116456276685525e+01  2.5148244744975457e+01  2.5222494153493276e+01  2.5353078651495213e+01  2.5559741805596914e+01  2.5871963297277549e+01  2.6135540548937861e+01  2.6277515504279759e+01  2.6367336751362632e+01  2.6316435008680529e+01  2.6188482566075475e+01  2.6049480606740861e+01  2.5446216991436010e+01  2.4821145085699435e+01  2.4031924865029961e+01  2.2829262627803697e+01  2.1723339530856748e+01  2.0684562035575478e+01  1.9731835253070219e+01  1.8058248569253497e+01  1.7159312435644811e+01  1.6176133853061820e+01  1.4968559326909785e+01  1.4193350360833506e+01  1.3410533456163925e+01  1.2164305306103479e+01  1.1594181831659865e+01  1.1033841764092378e+01  1.0472015703859380e+01  1.0198146153658820e+01  9.9400961227829345e+00  9.7925085228766200e+00  9.8708035178981355e+00  9.9560224438419471e+00  1.0077766932835756e+01  1.0373316498881769e+01  1.0872649641894828e+01  1.1345416266089089e+01  1.1764997454714075e+01  1.2048845160313453e+01  1.2284131545499731e+01  1.2466653184107267e+01  1.2591590693544754e+01  1.2662734486499627e+01  1.2692444025117414e+01  1.2698877012739253e+01  1.2697501395499165e+01  2.5565943739263034e+01  2.5565104829702431e+01  2.5571168823767298e+01  2.5599763732181980e+01  2.5666688959232360e+01  2.5781575544689037e+01  2.5944261936159538e+01  2.6133469125862355e+01  2.6311260496350801e+01  2.6448526925164554e+01  2.6499071630391278e+01  2.6422527063111275e+01  2.6251467904318623e+01  2.6043911264608376e+01  2.5672820203125248e+01  2.4778570135290494e+01  2.3936504132097408e+01  2.2936170040906873e+01  2.1754803879123390e+01  2.0720628295882719e+01  1.9659192828494106e+01  1.8063119618695385e+01  1.7151949777370046e+01  1.6177627323586993e+01  1.4980646572152384e+01  1.4216528976089000e+01  1.3446503858847779e+01  1.2227015782563795e+01  1.1681978316649735e+01  1.1154053907783709e+01  1.0646748574338552e+01  1.0420820025196743e+01  1.0218415749732520e+01  1.0206661053620460e+01  1.0375630898277086e+01  1.0580912347673388e+01  1.0835636800586887e+01  1.1112510438345389e+01  1.1607047991921203e+01  1.2082183784504785e+01  1.2476222797050323e+01  1.2774265200634108e+01  1.3023644951794084e+01  1.3226709682451245e+01  1.3377451700967120e+01  1.3471002625992710e+01  1.3513858086675858e+01  1.3523031347972001e+01  1.3520834102760457e+01  2.5845412050050548e+01  2.5844955425697162e+01  2.5849610798906081e+01  2.5869215646780699e+01  2.5915527254034242e+01  2.5995667112891020e+01  2.6107389946618678e+01  2.6239705593036348e+01  2.6361251190077095e+01  2.6437833195513608e+01  2.6463058183504049e+01  2.6352366172978879e+01  2.6155478441158539e+01  2.5911214746407790e+01  2.5619616344207884e+01  2.4596123517433782e+01  2.3703513355531065e+01  2.2855542818523755e+01  2.1679632289661043e+01  2.0642452205776323e+01  1.9649978111834418e+01  1.8024729471279585e+01  1.7118935297196934e+01  1.6157583299334846e+01  1.4975133487006074e+01  1.4224452734053704e+01  1.3469469445586878e+01  1.2288445958690616e+01  1.1771797105187568e+01  1.1280398997967671e+01  1.0833760791476450e+01  1.0659570631966305e+01  1.0518610538459550e+01  1.0651525904075479e+01  1.0911967984785463e+01  1.1192593970951599e+01  1.1525982594266694e+01  1.2253820533280551e+01  1.2877135051409272e+01  1.3314202233690983e+01  1.3824463376353490e+01  1.4285032230191787e+01  1.4620168262473795e+01  1.4846663350387045e+01  1.4985611440034431e+01  1.5054015283278066e+01  1.5074242299689381e+01  1.5076789618010050e+01  1.5082909710039367e+01  2.6041306220123658e+01  2.6042245070898172e+01  2.6046289515670743e+01  2.6061272462365967e+01  2.6095237592678142e+01  2.6151877986377428e+01  2.6227809060129545e+01  2.6309794721359626e+01  2.6374453873207624e+01  2.6399870352988120e+01  2.6364158509070428e+01  2.6218033301466011e+01  2.5994167807199641e+01  2.5725485849297034e+01  2.5328979859032810e+01  2.4440295977752236e+01  2.3497914531919363e+01  2.2695302238895795e+01  2.1532311434587342e+01  2.0524101738265966e+01  1.9608653822674739e+01  1.7940511697265659e+01  1.7062076926812804e+01  1.6115010920256562e+01  1.4952372328453912e+01  1.4217370026331746e+01  1.3479782043905075e+01  1.2348199646781348e+01  1.1863180213840629e+01  1.1411960303372579e+01  1.1031063895866620e+01  1.0911473790910309e+01  1.0836220040827111e+01  1.1113396094733837e+01  1.1453243476474663e+01  1.1809635041358863e+01  1.2190054978354880e+01  1.2966353799027313e+01  1.3625277906566875e+01  1.4168277306126503e+01  1.4685609223744706e+01  1.5115806073299314e+01  1.5434949955917196e+01  1.5664116135551803e+01  1.5812614522471096e+01  1.5894462087646472e+01  1.5930489581341439e+01  1.5940423634363494e+01  1.5937190968128453e+01  2.6250667822858361e+01  2.6249520533570610e+01  2.6250688444263151e+01  2.6256852508623183e+01  2.6269985734418256e+01  2.6288973384569253e+01  2.6308286878657228e+01  2.6317506799683066e+01  2.6302440207894925e+01  2.6248162492922887e+01  2.6135531189174991e+01  2.5938184463196215e+01  2.5674368251487287e+01  2.5354282721467026e+01  2.4896736933612353e+01  2.4211510348955546e+01  2.3261412735279549e+01  2.2467368389890442e+01  2.1338604451133342e+01  2.0357769564748015e+01  1.9484901148880411e+01  1.7831648278633729e+01  1.6979296974893387e+01  1.6046640750682389e+01  1.4912253423095592e+01  1.4195096580617575e+01  1.3477532630029204e+01  1.2406541253514961e+01  1.1956555031618583e+01  1.1547801657064603e+01  1.1235829168243193e+01  1.1172897128875363e+01  1.1167554944334652e+01  1.1587711306815596e+01  1.1997132193690920e+01  1.2409953573001465e+01  1.2800698136939943e+01  1.3763407323845271e+01  1.4403186072027921e+01  1.4966610446417306e+01  1.5512117333619990e+01  1.5969632278179343e+01  1.6319155869826005e+01  1.6571906758977700e+01  1.6735866529615969e+01  1.6824585680037146e+01  1.6858831709687600e+01  1.6863757031836776e+01  1.6861700699980105e+01  2.6346841681522001e+01  2.6349229639725298e+01  2.6349946884594797e+01  2.6348321132575673e+01  2.6341889470758957e+01  2.6326168132902232e+01  2.6295165906571359e+01  2.6241574755782722e+01  2.6157369081800709e+01  2.6033613215768785e+01  2.5856662452491250e+01  2.5613808128362844e+01  2.5317786285561755e+01  2.4963135817433130e+01  2.4504865055322536e+01  2.3890843736630874e+01  2.2993058700400439e+01  2.2182658154657481e+01  2.1088888901221569e+01  2.0134876887826028e+01  1.9282704630704629e+01  1.7699875834027562e+01  1.6867501615283860e+01  1.5952101956873749e+01  1.4854211886578369e+01  1.4157056071408704e+01  1.3462400849929594e+01  1.2464780431956010e+01  1.2053912484918362e+01  1.1688111032666232e+01  1.1447013155154490e+01  1.1441515675894319e+01  1.1512003768547222e+01  1.2075343683613974e+01  1.2551477953007874e+01  1.3013978834889270e+01  1.3441154194065756e+01  1.4713500934412670e+01  1.5424214398212326e+01  1.6010624002304393e+01  1.6556251050175057e+01  1.7035649594565839e+01  1.7427572115073943e+01  1.7711911092038239e+01  1.7895405042776215e+01  1.7996755201479651e+01  1.8039893862365332e+01  1.8052737429854282e+01  1.8057498304359697e+01  2.6439485174565007e+01  2.6436012337998427e+01  2.6432742581846554e+01  2.6424004284579929e+01  2.6401322353085149e+01  2.6356252565995600e+01  2.6282063043643902e+01  2.6173960361516052e+01  2.6028584021946646e+01  2.5842239049273587e+01  2.5607974106077474e+01  2.5319722777492583e+01  2.4981873297635374e+01  2.4587584687629832e+01  2.4100547292948804e+01  2.3469613786819490e+01  2.2631994858140956e+01  2.1811042893600590e+01  2.0760174567992102e+01  1.9853645708005654e+01  1.9018521265822017e+01  1.7541190102009850e+01  1.6725072321582076e+01  1.5829131034996539e+01  1.4778315955801139e+01  1.4103247672773811e+01  1.3431317491226530e+01  1.2527253741144275e+01  1.2161869750310608e+01  1.1838399077884114e+01  1.1667959710272289e+01  1.1714006800107461e+01  1.1881361088535273e+01  1.2580244672498733e+01  1.3123347510383791e+01  1.3637380410860105e+01  1.4107773884387779e+01  1.5503335034404779e+01  1.6162281228802662e+01  1.6691720617970748e+01  1.7214196344514232e+01  1.7706693773123867e+01  1.8124316509068624e+01  1.8428798804900147e+01  1.8623961575327581e+01  1.8727967475250757e+01  1.8769126619241824e+01  1.8778050046154569e+01  1.8775443976123565e+01  2.6443219538146270e+01  2.6445790987420107e+01  2.6442404772233449e+01  2.6418872288711341e+01  2.6359228755753570e+01  2.6249774765518382e+01  2.6083156258148961e+01  2.5859188808332920e+01  2.5582599549082058e+01  2.5259554876138345e+01  2.4894700298098495e+01  2.4491070022549255e+01  2.4051389062306527e+01  2.3574066387715479e+01  2.3050252539039477e+01  2.2470294417056632e+01  2.1841871018574455e+01  2.1198298395591667e+01  2.0353574718144980e+01  1.9503866760525028e+01  1.8677195142806038e+01  1.7358970325074417e+01  1.6549437412555449e+01  1.5679292390797325e+01  1.4689212330917883e+01  1.4027269470210641e+01  1.3376301844198567e+01  1.2606293342088197e+01  1.2283915536161260e+01  1.2027343513450843e+01  1.1946298686791382e+01  1.2044824777386319e+01  1.2359374765856142e+01  1.3112650873722517e+01  1.3721762514470596e+01  1.4292134071930672e+01  1.4796799956220182e+01  1.6269635603793592e+01  1.6890875244599751e+01  1.7361401192727989e+01  1.7836702030533072e+01  1.8465087394047465e+01  1.8943385709534741e+01  1.9294169115174544e+01  1.9522712156601198e+01  1.9646543943513056e+01  1.9693914967259655e+01  1.9698219504138198e+01  1.9690699465500376e+01  2.6347284270929844e+01  2.6347847801169340e+01  2.6340254312138065e+01  2.6307445852256702e+01  2.6227050379236314e+01  2.6082650683405053e+01  2.5868819979489260e+01  2.5589216231856209e+01  2.5252701391256153e+01  2.4869422917880541e+01  2.4447835490947277e+01  2.3993765185271641e+01  2.3510600031596248e+01  2.2998003529098835e+01  2.2450771678924497e+01  2.1860837790544519e+01  2.1224785018805999e+01  2.0529036519794751e+01  1.9772802280544902e+01  1.9030416633849185e+01  1.8235884534175792e+01  1.7126762841483217e+01  1.6308433517763593e+01  1.5466637722970596e+01  1.4558114786003244e+01  1.3907140065096705e+01  1.3280237831089728e+01  1.2767098360905067e+01  1.2465274001313524e+01  1.2298343901793695e+01  1.2390723855312741e+01  1.2578072282013270e+01  1.3018963432525855e+01  1.3681495700975860e+01  1.4367993260845376e+01  1.4994761835816311e+01  1.5525992027382964e+01  1.7068394267384715e+01  1.7682270678095467e+01  1.8159538299557550e+01  1.8804884584820986e+01  2.0287970927291120e+01  2.0821542838165819e+01  2.1165603229094881e+01  2.1380250062970966e+01  2.1494836