<?xml version="1.0"?>
<VTKFile type="UnstructuredGrid"  version="0.1"  >
<UnstructuredGrid>
<Piece  NumberOfPoints="2401" NumberOfCells="4608">
<Points>
<DataArray  type="Float64"  NumberOfComponents="3"  format="ascii">0 0 0  0.001070538380698371 0 0  0.004277569313095364 0 0  0.009607359798386061 0 0  0.01703708685546806 0 0  0.02653493525245065 0 0  0.03806023374436157 0 0  0.05156362923366253 0 0  0.06698729810778931 0 0  0.08426519384873815 0 0  0.1033233298543955 0 0  0.1240800962605269 0 0  0.1464466094067445 0 0  0.1703270924499866 0 0  0.1956192854956637 0 0  0.2222148834902257 0 0  0.2500000000000299 0 0  0.2788556548905322 0 0  0.308658283817491 0 0  0.339280267348458 0 0  0.3705904774487813 0 0  0.4024548389919803 0 0  0.4347369038900211 0 0  0.467298435384978 0 0  0.5000000000000517 0 0  0.5327015646151253 0 0  0.5652630961100813 0 0  0.5975451610081212 0 0  0.6294095225513188 0 0  0.6607197326516399 0 0  0.6913417161826045 0 0  0.7211443451095605 0 0  0.7500000000000597 0 0  0.7777851165098603 0 0  0.8043807145044185 0 0  0.829672907550091 0 0  0.8535533905933287 0 0  0.8759199037395413 0 0  0.8966766701456674 0 0  0.9157348061513193 0 0  0.9330127018922625 0 0  0.9484363707663832 0 0  0.961939766255678 0 0  0.9734650647475827 0 0  0.9829629131445586 0 0  0.9903926402016341 0 0  0.9957224306869181 0 0  0.9989294616193084 0 0  1 0 0  0 0.02083333333333333 0  0.001070538380698371 0.02083333333333333 0  0.004277569313095364 0.02083333333333333 0  0.009607359798386061 0.02083333333333333 0  0.01703708685546806 0.02083333333333333 0  0.02653493525245065 0.02083333333333333 0  0.03806023374436157 0.02083333333333333 0  0.05156362923366253 0.02083333333333333 0  0.06698729810778931 0.02083333333333333 0  0.08426519384873815 0.02083333333333333 0  0.1033233298543955 0.02083333333333333 0  0.1240800962605269 0.02083333333333333 0  0.1464466094067445 0.02083333333333333 0  0.1703270924499866 0.02083333333333333 0  0.1956192854956637 0.02083333333333333 0  0.2222148834902257 0.02083333333333333 0  0.2500000000000299 0.02083333333333333 0  0.2788556548905322 0.02083333333333333 0  0.308658283817491 0.02083333333333333 0  0.339280267348458 0.02083333333333333 0  0.3705904774487813 0.02083333333333333 0  0.4024548389919803 0.02083333333333333 0  0.4347369038900211 0.02083333333333333 0  0.467298435384978 0.02083333333333333 0  0.5000000000000517 0.02083333333333333 0  0.5327015646151253 0.02083333333333333 0  0.5652630961100813 0.02083333333333333 0  0.5975451610081212 0.02083333333333333 0  0.6294095225513188 0.02083333333333333 0  0.6607197326516399 0.02083333333333333 0  0.6913417161826045 0.02083333333333333 0  0.7211443451095605 0.02083333333333333 0  0.7500000000000597 0.02083333333333333 0  0.7777851165098603 0.02083333333333333 0  0.8043807145044185 0.02083333333333333 0  0.829672907550091 0.02083333333333333 0  0.8535533905933287 0.02083333333333333 0  0.8759199037395413 0.02083333333333333 0  0.8966766701456674 0.02083333333333333 0  0.9157348061513193 0.02083333333333333 0  0.9330127018922625 0.02083333333333333 0  0.9484363707663832 0.02083333333333333 0  0.961939766255678 0.02083333333333333 0  0.9734650647475827 0.02083333333333333 0  0.9829629131445586 0.02083333333333333 0  0.9903926402016341 0.02083333333333333 0  0.9957224306869181 0.02083333333333333 0  0.9989294616193084 0.02083333333333333 0  1 0.02083333333333333 0  0 0.04166666666666666 0  0.001070538380698371 0.04166666666666666 0  0.004277569313095364 0.04166666666666666 0  0.009607359798386061 0.04166666666666666 0  0.01703708685546806 0.04166666666666666 0  0.02653493525245065 0.04166666666666666 0  0.03806023374436157 0.04166666666666666 0  0.05156362923366253 0.04166666666666666 0  0.06698729810778931 0.04166666666666666 0  0.08426519384873815 0.04166666666666666 0  0.1033233298543955 0.04166666666666666 0  0.1240800962605269 0.04166666666666666 0  0.1464466094067445 0.04166666666666666 0  0.1703270924499866 0.04166666666666666 0  0.1956192854956637 0.04166666666666666 0  0.2222148834902257 0.04166666666666666 0  0.2500000000000299 0.04166666666666666 0  0.2788556548905322 0.04166666666666666 0  0.308658283817491 0.04166666666666666 0  0.339280267348458 0.04166666666666666 0  0.3705904774487813 0.04166666666666666 0  0.4024548389919803 0.04166666666666666 0  0.4347369038900211 0.04166666666666666 0  0.467298435384978 0.04166666666666666 0  0.5000000000000517 0.04166666666666666 0  0.5327015646151253 0.04166666666666666 0  0.5652630961100813 0.04166666666666666 0  0.5975451610081212 0.04166666666666666 0  0.6294095225513188 0.04166666666666666 0  0.6607197326516399 0.04166666666666666 0  0.6913417161826045 0.04166666666666666 0  0.7211443451095605 0.04166666666666666 0  0.7500000000000597 0.04166666666666666 0  0.7777851165098603 0.04166666666666666 0  0.8043807145044185 0.04166666666666666 0  0.829672907550091 0.04166666666666666 0  0.8535533905933287 0.04166666666666666 0  0.8759199037395413 0.04166666666666666 0  0.8966766701456674 0.04166666666666666 0  0.9157348061513193 0.04166666666666666 0  0.9330127018922625 0.04166666666666666 0  0.9484363707663832 0.04166666666666666 0  0.961939766255678 0.04166666666666666 0  0.9734650647475827 0.04166666666666666 0  0.9829629131445586 0.04166666666666666 0  0.9903926402016341 0.04166666666666666 0  0.9957224306869181 0.04166666666666666 0  0.9989294616193084 0.04166666666666666 0  1 0.04166666666666666 0  0 0.0625 0  0.001070538380698371 0.0625 0  0.004277569313095364 0.0625 0  0.009607359798386061 0.0625 0  0.01703708685546806 0.0625 0  0.02653493525245065 0.0625 0  0.03806023374436157 0.0625 0  0.05156362923366253 0.0625 0  0.06698729810778931 0.0625 0  0.08426519384873815 0.0625 0  0.1033233298543955 0.0625 0  0.1240800962605269 0.0625 0  0.1464466094067445 0.0625 0  0.1703270924499866 0.0625 0  0.1956192854956637 0.0625 0  0.2222148834902257 0.0625 0  0.2500000000000299 0.0625 0  0.2788556548905322 0.0625 0  0.308658283817491 0.0625 0  0.339280267348458 0.0625 0  0.3705904774487813 0.0625 0  0.4024548389919803 0.0625 0  0.4347369038900211 0.0625 0  0.467298435384978 0.0625 0  0.5000000000000517 0.0625 0  0.5327015646151253 0.0625 0  0.5652630961100813 0.0625 0  0.5975451610081212 0.0625 0  0.6294095225513188 0.0625 0  0.6607197326516399 0.0625 0  0.6913417161826045 0.0625 0  0.7211443451095605 0.0625 0  0.7500000000000597 0.0625 0  0.7777851165098603 0.0625 0  0.8043807145044185 0.0625 0  0.829672907550091 0.0625 0  0.8535533905933287 0.0625 0  0.8759199037395413 0.0625 0  0.8966766701456674 0.0625 0  0.9157348061513193 0.0625 0  0.9330127018922625 0.0625 0  0.9484363707663832 0.0625 0  0.961939766255678 0.0625 0  0.9734650647475827 0.0625 0  0.9829629131445586 0.0625 0  0.9903926402016341 0.0625 0  0.9957224306869181 0.0625 0  0.9989294616193084 0.0625 0  1 0.0625 0  0 0.08333333333333333 0  0.001070538380698371 0.08333333333333333 0  0.004277569313095364 0.08333333333333333 0  0.009607359798386061 0.08333333333333333 0  0.01703708685546806 0.08333333333333333 0  0.02653493525245065 0.08333333333333333 0  0.03806023374436157 0.08333333333333333 0  0.05156362923366253 0.08333333333333333 0  0.06698729810778931 0.08333333333333333 0  0.08426519384873815 0.08333333333333333 0  0.1033233298543955 0.08333333333333333 0  0.1240800962605269 0.08333333333333333 0  0.1464466094067445 0.08333333333333333 0  0.1703270924499866 0.08333333333333333 0  0.1956192854956637 0.08333333333333333 0  0.2222148834902257 0.08333333333333333 0  0.2500000000000299 0.08333333333333333 0  0.2788556548905322 0.08333333333333333 0  0.308658283817491 0.08333333333333333 0  0.339280267348458 0.08333333333333333 0  0.3705904774487813 0.08333333333333333 0  0.4024548389919803 0.08333333333333333 0  0.4347369038900211 0.08333333333333333 0  0.467298435384978 0.08333333333333333 0  0.5000000000000517 0.08333333333333333 0  0.5327015646151253 0.08333333333333333 0  0.5652630961100813 0.08333333333333333 0  0.5975451610081212 0.08333333333333333 0  0.6294095225513188 0.08333333333333333 0  0.6607197326516399 0.08333333333333333 0  0.6913417161826045 0.08333333333333333 0  0.7211443451095605 0.08333333333333333 0  0.7500000000000597 0.08333333333333333 0  0.7777851165098603 0.08333333333333333 0  0.8043807145044185 0.08333333333333333 0  0.829672907550091 0.08333333333333333 0  0.8535533905933287 0.08333333333333333 0  0.8759199037395413 0.08333333333333333 0  0.8966766701456674 0.08333333333333333 0  0.9157348061513193 0.08333333333333333 0  0.9330127018922625 0.08333333333333333 0  0.9484363707663832 0.08333333333333333 0  0.961939766255678 0.08333333333333333 0  0.9734650647475827 0.08333333333333333 0  0.9829629131445586 0.08333333333333333 0  0.9903926402016341 0.08333333333333333 0  0.9957224306869181 0.08333333333333333 0  0.9989294616193084 0.08333333333333333 0  1 0.08333333333333333 0  0 0.1041666666666667 0  0.001070538380698371 0.1041666666666667 0  0.004277569313095364 0.1041666666666667 0  0.009607359798386061 0.1041666666666667 0  0.01703708685546806 0.1041666666666667 0  0.02653493525245065 0.1041666666666667 0  0.03806023374436157 0.1041666666666667 0  0.05156362923366253 0.1041666666666667 0  0.06698729810778931 0.1041666666666667 0  0.08426519384873815 0.1041666666666667 0  0.1033233298543955 0.1041666666666667 0  0.1240800962605269 0.1041666666666667 0  0.1464466094067445 0.1041666666666667 0  0.1703270924499866 0.1041666666666667 0  0.1956192854956637 0.1041666666666667 0  0.2222148834902257 0.1041666666666667 0  0.2500000000000299 0.1041666666666667 0  0.2788556548905322 0.1041666666666667 0  0.308658283817491 0.1041666666666667 0  0.339280267348458 0.1041666666666667 0  0.3705904774487813 0.1041666666666667 0  0.4024548389919803 0.1041666666666667 0  0.4347369038900211 0.1041666666666667 0  0.467298435384978 0.1041666666666667 0  0.5000000000000517 0.1041666666666667 0  0.5327015646151253 0.1041666666666667 0  0.5652630961100813 0.1041666666666667 0  0.5975451610081212 0.1041666666666667 0  0.62
[...]
<PointData  Scalars="f_3378589"> 
<DataArray  type="Float64"  Name="f_3378589"  format="ascii">6.6802529616611359e+00  6.6844719600656335e+00  6.6866009413124523e+00  6.7661284232037202e+00  6.8201886151887559e+00  6.8908439793698539e+00  7.1101013245134173e+00  7.3536966395849088e+00  7.6541888932054176e+00  8.1293470223980986e+00  8.6719894379509768e+00  9.3751893184316781e+00  1.0147480862931010e+01  1.0748293714645545e+01  1.1504464900829943e+01  1.2987776987571539e+01  1.3720892027670352e+01  1.4608796950694556e+01  1.5884478776804405e+01  1.6632945377920688e+01  1.7562335015083718e+01  1.9035576763751923e+01  1.9742908967605956e+01  2.0586476141995806e+01  2.1715622395804100e+01  2.2372095619259323e+01  2.3163133363739863e+01  2.4118462540357381e+01  2.4628821576226763e+01  2.5150037032981650e+01  2.5681405102924305e+01  2.5946112801826825e+01  2.6135175516440729e+01  2.6156971649651396e+01  2.6005786032811461e+01  2.5777806885712305e+01  2.5506371939216105e+01  2.5104243471374318e+01  2.4738011858995836e+01  2.4408725831529587e+01  2.4102754988046183e+01  2.3809563676902325e+01  2.3557293701610487e+01  2.3356458002168530e+01  2.3212796791929325e+01  2.3129603618633400e+01  2.3096872460608346e+01  2.3095216564451917e+01  2.3113113210522016e+01  6.6355799528368271e+00  6.6366492910232138e+00  6.6423081751108155e+00  6.7145749033204050e+00  6.7735601146042459e+00  6.8499065401040165e+00  7.0388889092172144e+00  7.2656268963720567e+00  7.6039423639196722e+00  8.1028579754396457e+00  8.5618575902324778e+00  9.2771982775542217e+00  1.0061088921696506e+01  1.0660792768380231e+01  1.1368124696828142e+01  1.2751004680091484e+01  1.3598385685682679e+01  1.4535339468874447e+01  1.5751945729398066e+01  1.6546918332551048e+01  1.7455627682312421e+01  1.8906216533699634e+01  1.9628495815326044e+01  2.0488843220513669e+01  2.1580666124832867e+01  2.2273758637248555e+01  2.3064238618072210e+01  2.4052709640332473e+01  2.4567841938299988e+01  2.5111371584352050e+01  2.5671790816566556e+01  2.5960990591978288e+01  2.6185849567708260e+01  2.6301699071915579e+01  2.6234290257745720e+01  2.6003168649781912e+01  2.5745633920163261e+01  2.5422887068247931e+01  2.5142062503941279e+01  2.4871303808227065e+01  2.4594899637444723e+01  2.4326844919441587e+01  2.4089101496311358e+01  2.3902409912084412e+01  2.3764114900586225e+01  2.3680335964897743e+01  2.3641802643573108e+01  2.3628814767982309e+01  2.3616761246350691e+01  6.5434312314734884e+00  6.5435897547523947e+00  6.5497142254862970e+00  6.6152511220436372e+00  6.6774853061894808e+00  6.7506666353235074e+00  6.9186606446452830e+00  7.1251484012368120e+00  7.3715784861005424e+00  7.9766786198014161e+00  8.3851255518848582e+00  8.8365541825642833e+00  9.8787325049949661e+00  1.0482182014042959e+01  1.1144664516007190e+01  1.2143144918750721e+01  1.3222802312526570e+01  1.4208739731150017e+01  1.5438468681731123e+01  1.6238953195002100e+01  1.7127336946577195e+01  1.8544041658417566e+01  1.9294907359686178e+01  2.0172561190368810e+01  2.1253045125713346e+01  2.1973810356777982e+01  2.2775138644668171e+01  2.3850240085054931e+01  2.4403852702598567e+01  2.4993990252887855e+01  2.5630150097605295e+01  2.5978160844481859e+01  2.6283259059341692e+01  2.6533329352350883e+01  2.6569268837004749e+01  2.6439366291495396e+01  2.6228359871281860e+01  2.5941969210416559e+01  2.5639963519767484e+01  2.5380324980837759e+01  2.5120313939211023e+01  2.4865886516732971e+01  2.4633524334854833e+01  2.4444772990019306e+01  2.4313560752236871e+01  2.4239947619749522e+01  2.4210088553584914e+01  2.4204573363694312e+01  2.4208674154168317e+01  6.4062685005759210e+00  6.4065015038655897e+00  6.4145773848802552e+00  6.4644434467591187e+00  6.5555806873735918e+00  6.6322980632849236e+00  6.7921960334942533e+00  6.9739622337898837e+00  7.1964904257094675e+00  7.7564043866624397e+00  8.2008742166967412e+00  8.5940182718091638e+00  9.0216921456735708e+00  1.0227660281053609e+01  1.0893846412149921e+01  1.1824812567493902e+01  1.2634591238277327e+01  1.3727240668803283e+01  1.4933996057276396e+01  1.5764676012878317e+01  1.6639614103531116e+01  1.8019915040003546e+01  1.8817751124525500e+01  1.9714965393907431e+01  2.0807479525745695e+01  2.1563149965338969e+01  2.2385480498573816e+01  2.3561043151507508e+01  2.4178654686035113e+01  2.4832728863687947e+01  2.5556767698705450e+01  2.5974737220085217e+01  2.6365566210696215e+01  2.6751446564839437e+01  2.6866502784835308e+01  2.6913827153123261e+01  2.6792325340964073e+01  2.6567000911790732e+01  2.6196418185874620e+01  2.5824291740492814e+01  2.5533025529390262e+01  2.5269683189551476e+01  2.5041949863500008e+01  2.4857752695005122e+01  2.4727977774777624e+01  2.4654086857080376e+01  2.4623075936122220e+01  2.4616012292017132e+01  2.4615943651985823e+01  6.2947219505364931e+00  6.2943727708001740e+00  6.2980213014869699e+00  6.3138647536493382e+00  6.3927603112181997e+00  6.5321873075855486e+00  6.6495430605402825e+00  6.8439479215010026e+00  7.0627892129730858e+00  7.3191521479195982e+00  8.0124103558065602e+00  8.4278076092209346e+00  8.8179228265509426e+00  9.2726599054191645e+00  1.0412969799885886e+01  1.1396945212421960e+01  1.2242425567892047e+01  1.3071547303654345e+01  1.4323044111361428e+01  1.5137352727837012e+01  1.6025710194261414e+01  1.7421372568725317e+01  1.8255629754556633e+01  1.9175263114654324e+01  2.0305900128050450e+01  2.1092378451158353e+01  2.1937301670232866e+01  2.3230413592932194e+01  2.3914381475481886e+01  2.4637204649310622e+01  2.5452935591032627e+01  2.5937401056138963e+01  2.6411518238937720e+01  2.6929202383353498e+01  2.7093556452258671e+01  2.7212556919280722e+01  2.7190037420706954e+01  2.7061357133522701e+01  2.6658913934357496e+01  2.6389382660062182e+01  2.6064464838430890e+01  2.5794627715172847e+01  2.5558582687844478e+01  2.5370754371759144e+01  2.5238750697619132e+01  2.5161165771451405e+01  2.5127280520177887e+01  2.5118489925506982e+01  2.5117305689684514e+01  6.2264394556058846e+00  6.2268186790441691e+00  6.2286091192965349e+00  6.2388812536366434e+00  6.2710405224874464e+00  6.3770461744144269e+00  6.5529155552650034e+00  6.6969973014058484e+00  6.9405820318795346e+00  7.1916493592670507e+00  7.4611878337680642e+00  8.2299609396794615e+00  8.6471873507237067e+00  9.0514321580320090e+00  9.5262760160544886e+00  1.0774442970569075e+01  1.1691677326333636e+01  1.2560789349462700e+01  1.3690999829957331e+01  1.4510280878687469e+01  1.5377996241691211e+01  1.6822635347565694e+01  1.7674927782888812e+01  1.8613110525667121e+01  1.9786224300564790e+01  2.0601235399000842e+01  2.1473217255509848e+01  2.2880887665914685e+01  2.3626391711576897e+01  2.4415666535450601e+01  2.5317017593909910e+01  2.5858875299313084e+01  2.6405379502866232e+01  2.7039760285489251e+01  2.7237298960695984e+01  2.7382428055184153e+01  2.7390037238872807e+01  2.7295264074871849e+01  2.6915998183201612e+01  2.6538479163695385e+01  2.6244671016695580e+01  2.5984239652068300e+01  2.5767509596301295e+01  2.5598547793396186e+01  2.5482537878590939e+01  2.5417198579133821e+01  2.5390578050677473e+01  2.5384886464247725e+01  2.5385030922593167e+01  6.1870937437807765e+00  6.1870819359967246e+00  6.1884256725020892e+00  6.1957028703233528e+00  6.2231110164637835e+00  6.2812005515946874e+00  6.3975347607464457e+00  6.5978272776509899e+00  6.7745982639897484e+00  7.0710292131773480e+00  7.3715907811288304e+00  7.6596601484813647e+00  8.4480868983954505e+00  8.8724622507145749e+00  9.3065419678442094e+00  1.0221441678806004e+01  1.1258838729697493e+01  1.2158192042181042e+01  1.3208052328771110e+01  1.3994411499360053e+01  1.4795604603688478e+01  1.6267112881308432e+01  1.7115665461071554e+01  1.8063975606408057e+01  1.9273478338171355e+01  2.0112833572483364e+01  2.1010878036581545e+01  2.2522838818549861e+01  2.3322849361770789e+01  2.4171460611130282e+01  2.5147369157795914e+01  2.5735610903135395e+01  2.6340389297478957e+01  2.7066402227907762e+01  2.7290867948122013e+01  2.7464922414271562e+01  2.7480442370642724e+01  2.7388783252805137e+01  2.7144873349678100e+01  2.6655103286419678e+01  2.6353553178352755e+01  2.6096249159689105e+01  2.5883794552708721e+01  2.5718158466750438e+01  2.5603902910727328e+01  2.5538601798669760e+01  2.5510933210067826e+01  2.5504574668041553e+01  2.5504930619558021e+01  6.1991021458393085e+00  6.1983139002307146e+00  6.1990757427461043e+00  6.2041353935736083e+00  6.2183705324200051e+00  6.2489727049321191e+00  6.3134777546943601e+00  6.4718294009773203e+00  6.6911323743031801e+00  6.9046374558645214e+00  7.2450334829202037e+00  7.6014938839426014e+00  7.8870711825454496e+00  8.6600781435670360e+00  9.1471691334990552e+00  9.7539536263464299e+00  1.0782104741635614e+01  1.1786654290020643e+01  1.2763650451905624e+01  1.3581953055470299e+01  1.4312167798315825e+01  1.5759181650062022e+01  1.6593737992437596e+01  1.7544848359643129e+01  1.8780168261434483e+01  1.9639088461075755e+01  2.0559663731247785e+01  2.2160694344903099e+01  2.3007129103160437e+01  2.3906148082881064e+01  2.4943171796720566e+01  2.5566640281484556e+01  2.6214538838615645e+01  2.6998934146674930e+01  2.7237370190476934e+01  2.7457881207356632e+01  2.7494002583237176e+01  2.7398703087504561e+01  2.7152329874072091e+01  2.6778634292244767e+01  2.6379654458539637e+01  2.6121463819854050e+01  2.5915285385802935e+01  2.5755258340798065e+01  2.5645553437028695e+01  2.5582781948461779e+01  2.5556308944401049e+01  2.5549924664017333e+01  2.5549212308730752e+01  6.2234717054266859e+00  6.2247602356417699e+00  6.2256152873488864e+00  6.2281912798514574e+00  6.2375587685660872e+00  6.2613606074391814e+00  6.3118295789196015e+00  6.4252645072485786e+00  6.6033388215265951e+00  6.8405473899064626e+00  7.0867722448636599e+00  7.4999115274502222e+00  7.8147887911912690e+00  8.1364533338472427e+00  8.9294597377844926e+00  9.5545453328332641e+00  1.0273572035550671e+01  1.1361514305405739e+01  1.2268838263591540e+01  1.3162796231977389e+01  1.3914350204290555e+01  1.5282125075111979e+01  1.6107180072358361e+01  1.7057987799223628e+01  1.8309793140081336e+01  1.9184140750525117e+01  2.0122987206211889e+01  2.1795043538631099e+01  2.2680188589203691e+01  2.3620510439847333e+01  2.4704753257588845e+01  2.5352652777893233e+01  2.6028749689529693e+01  2.6844222750704212e+01  2.7067343777191109e+01  2.7287303067142549e+01  2.7409177680563445e+01  2.7302689703596673e+01  2.7021032988990576e+01  2.6683903569563018e+01  2.6311323984053114e+01  2.6051030358575652e+01  2.5848111169929890e+01  2.5696462075410704e+01  2.5593834918627103e+01  2.5535781230971651e+01  2.5511538253580643e+01  2.5505967808172390e+01  2.5506309955695556e+01  6.3650226799690328e+00  6.3643903267605237e+00  6.3643045756695376e+00  6.3674719352875684e+00  6.3785478954992110e+00  6.4048340033115077e+00  6.4575315922563510e+00  6.5477097353294127e+00  6.6763239426766541e+00  6.8213139252326203e+00  7.0821662956937796e+00  7.4286792443500422e+00  7.7654516309887303e+00  8.0543025320249910e+00  8.5745646436212528e+00  9.3468329842011588e+00  9.9776448018390784e+00  1.0774257428150529e+01  1.1756469046831102e+01  1.2561378292027658e+01  1.3435507949315866e+01  1.4797660328853720e+01  1.5652482442778570e+01  1.6598878851466850e+01  1.7861403371612042e+01  1.8747710984449796e+01  1.9700803492328479e+01  2.1425003043929905e+01  2.2342001637643893e+01  2.3315147651235780e+01  2.4433608477659071e+01  2.5096279376829781e+01  2.5787232479215220e+01  2.6603199336518095e+01  2.6807188894311437e+01  2.6983044813094452e+01  2.7116231300818946e+01  2.7104298648131138e+01  2.6846731408984262e+01  2.6524183570629578e+01  2.6211689082689841e+01  2.5940746786595401e+01  2.5730626755213962e+01  2.5573660527790270e+01  2.5464239657509239e+01  2.5400134132170422e+01  2.5372397415914651e+01  2.5366515456938686e+01  2.5367397113852068e+01  6.5229574289968912e+00  6.5223129901705539e+00  6.5229325899964232e+00  6.5269074212795175e+00  6.5387395625863096e+00  6.5653129655298210e+00  6.6149014287180465e+00  6.6974919851721966e+00  6.8152251035724278e+00  6.9643947350342525e+00  7.1642175686267411e+00  7.4971606222375202e+00  7.7879065861327028e+00  8.0676315854941638e+00  8.4011315273543481e+00  9.2736350082023460e+00  9.8974931124322403e+00  1.0511449896243555e+01  1.1402481649087955e+01  1.2182667008008250e+01  1.2981993143245289e+01  1.4382271034541748e+01  1.5221785929824328e+01  1.6164463093037831e+01  1.7433198328982517e+01  1.8327849657673035e+01  1.9291380095967096e+01  2.1049298724572360e+01  2.1992268131953143e+01  2.2991007226625740e+01  2.4132465595551988e+01  2.4801962997756522e+01  2.5495890819374598e+01  2.6292691010228097e+01  2.6465292367295376e+01  2.6607493402538697e+01  2.6713542556055874e+01  2.6574512836937419e+01  2.6307003124390729e+01  2.6072687674900315e+01  2.5786289524042800e+01  2.5514250707152392e+01  2.5308585673343988e+01  2.5161083623514134e+01  2.5065280448068467e+01  2.5013649654075316e+01  2.4993908985844516e+01  2.4989616168260945e+01  2.4987550040640535e+01  6.6915347424954570e+00  6.6922447233872262e+00  6.6934045314619173e+00  6.6972925708669235e+00  6.7086793329008820e+00  6.7342636892455294e+00  6.7822700529512776e+00  6.8606712736924917e+00  6.9724638356176500e+00  7.1159266248420412e+00  7.3124370043301381e+00  7.5942371560481119e+00  7.8740776900380904e+00  8.1410665715534520e+00  8.4767778164026328e+00  9.1874343797114335e+00  9.8429642276254530e+00  1.0391807666262400e+01  1.1203999997379885e+01  1.1924113563631856e+01  1.2611238581676300e+01  1.4017918117853611e+01  1.4827725635158350e+01  1.5759798223425388e+01  1.7023696723270376e+01  1.7922836407414085e+01  1.8892681142691515e+01  2.0666614379240578e+01  2.1630532198200871e+01  2.2649565215009691e+01  2.3805288344286684e+01  2.4475684515202893e+01  2.5162889228655143e+01  2.5928216584980699e+01  2.6072026964088149e+01  2.6171080902501146e+01  2.6259597281850787e+01  2.6166304613330009e+01  2.5900041376047525e+01  2.5662430752088664e+01  2.5409370572233367e+01  2.5179138844668827e+01  2.5002578793215150e+01  2.4873748243611736e+01  2.4789999071343669e+01  2.4744146220488357e+01  2.4724917499698453e+01  2.4720208162389810e+01  2.4721304482511297e+01  6.9932037307647086e+00  6.9936089760701723e+00  6.9937492451080772e+00  6.9971110295295285e+00  7.0085811186605049e+00  7.0344276846958733e+00  7.0816140465461483e+00  7.1561776668616766e+00  7.2611623048003455e+00  7.3986738414422319e+00  7.5793883300066218e+00  7.8141721461172704e+00  8.0616104726705906e+00  8.3166973809278524e+00  8.6530731797447764e+00  9.1406306953555969e+00  9.8046251070782553e+00  1.0325282880217456e+01  1.1071144017878709e+01  1.1745968069010736e+01  1.2362427088742672e+01  1.3695123254105855e+01  1.4476068558015655e+01  1.5386754985820703e+01  1.6631930912979122e+01  1.7531194846218177e+01  1.8502905739921079e+01  2.0274904743852840e+01  2.1254996238554781e+01  2.2292834335094124e+01  2.3457879909550361e+01  2.4125946893702896e+01  2.4798088547925822e+01  2.5519146274791694e+01  2.5637448868329887e+01  2.5711576496319019e+01  2.5771530271854161e+01  2.5665335325703627e+01  2.5455437160037899e+01  2.5244925582669623e+01  2.5010165817394554e+01  2.4804748578127022e+01  2.4641200088657971e+01  2.4519777156277087e+01  2.4440072478956807e+01  2.4396500860572420e+01  2.4379339322249482e+01  2.4376411821182366e+01  2.4377160730551406e+01  7.2925734918973211e+00  7.2901229570574761e+00  7.2902381038236621e+00  7.2945907059265904e+00  7.3070691755855606e+00  7.3339458718572885e+00  7.3816972808014087e+00  7.4552958662239828e+00  7.5571756207816296e+00  7.6891591832443753e+00  7.8566146888014030e+00  8.0594611144119774e+00  8.2778686164699895e+00  8.5166577334274436e+00  8.8134724900595529e+00  9.2086322778135195e+00  9.7933377854762487e+00  1.0299228747297443e+01  1.0981268323338728e+01  1.1605485926144505e+01  1.2177058069854318e+01  1.3402269349014929e+01  1.4155038459964969e+01  1.5038851548991751e+01  1.6254885810318655e+01  1.7150086767714345e+01  1.8120919966194428e+01  1.9870316304110755e+01  2.0860156732321919e+01  2.1920903763051189e+01  2.3093534884950465e+01  2.3761547811195605e+01  2.4413145737760544e+01  2.5071877461709089e+01  2.5163628325493676e+01  2.5217691545493242e+01  2.5260191862843836e+01  2.5047392833485247e+01  2.4794699419858503e+01  2.4630637174622237e+01  2.4445906485930085e+01  2.4272277423651840e+01  2.4122462655475164e+01  2.4010060256258928e+01  2.3935899581950441e+01  2.3894440279896852e+01  2.3876555287117167e+01  2.3871102132267907e+01  2.3869253526261751e+01  7.5640350747406551e+00  7.5661069643040992e+00  7.5669168265204059e+00  7.5699575210377681e+00  7.5814290809040337e+00  7.6083462609948160e+00  7.6572071216282565e+00  7.7319126646468366e+00  7.8333362674183027e+00  7.9615600741147983e+00  8.1177974033055467e+00  8.3000156615377527e+00  8.4999267072051445e+00  8.7230120561756426e+00  8.9960616051492064e+00  9.3470026199542318e+00  9.8385871797552866e+00  1.0321318170114511e+01  1.0930290738035803e+01  1.1500005890563564e+01  1.2030265803771989e+01  1.3129840268714599e+01  1.3853726688204887e+01  1.4705199570880676e+01  1.5879822983813312e+01  1.6772700691556825e+01  1.7744946123000044e+01  1.9436749412900024e+01  2.0428758506035159e+01  2.1520344532298424e+01  2.2703676509147400e+01  2.3392009454411330e+01  2.4015894264399478e+01  2.4586050161669913e+01  2.4650284253440127e+01  2.4683340763824159e+01  2.4713106687593744e+01  2.4494917430335281e+01  2.4291792253634313e+01  2.4174944324129907e+01  2.4050571560196829e+01  2.3905706182321254e+01  2.3767068347404795e+01  2.3658548601890860e+01  2.3587117894345234e+01  2.3548558503359875e+01  2.3533398640382675e+01  2.3530712266735357e+01  2.3532550743241366e+01  8.1022492489652631e+00  8.1025549647261013e+00  8.1039413007374055e+00  8.1133752695823578e+00  8.1394786410100153e+00  8.1886070662907073e+00  8.2633534780506874e+00  8.3629316644225469e+00  8.4843922781230834e+00  8.6241161904393593e+00  8.7790371182435418e+00  8.9465182752894332e+00  9.1246804987720136e+00  9.3165260891513082e+00  9.5302401008600448e+00  9.7772915645695857e+00  1.0065225841711841e+01  1.0401840581794190e+01  1.0916714715417379e+01  1.1422951810922180e+01  1.1917943406996766e+01  1.2861620535295524e+01  1.3557871634780881e+01  1.4367936520383964e+01  1.5509391310062297e+01  1.6393937439131403e+01  1.7350331017919121e+01  1.8937136854126958e+01  1.9948622015417502e+01  2.1025553494353165e+01  2.2203883625230592e+01  2.2948014237394560e+01  2.3536611051922037e+01  2.4027585766078161e+01  2.4092414509682513e+01  2.4101304107929174e+01  2.4119378298120250e+01  2.3915074929787131e+01  2.3744845428381815e+01  2.3666582784906094e+01  2.3626771260285111e+01  2.3513771613219575e+01  2.3361097910329075e+01  2.3243842864885053e+01  2.3165333276697556e+01  2.3121852103087537e+01  2.3105088807169967e+01  2.3102815328407921e+01  2.3103574158447927e+01  8.5123311333284750e+00  8.5114042628790507e+00  8.5135194154897267e+00  8.5244922792260152e+00  8.5516745085148766e+00  8.6010797472102674e+00  8.6751234467808676e+00  8.7728419738508130e+00  8.8910287277771580e+00  9.0256050843678111e+00  9.1728073419768243e+00  9.3297773282820895e+00  9.4951877070508282e+00  9.6705920871123290e+00  9.8610808850248279e+00  1.0073794080614110e+01  1.0315163753623683e+01  1.0597013063115744e+01  1.0946880891635717e+01  1.1375671428080871e+01  1.1834032244609823e+01  1.2578719530201056e+01  1.3251174820435754e+01  1.3996758142703039e+01  1.5000182566483934e+01  1.5918655969620250e+01  1.6965756796835581e+01  1.8083767967972708e+01  1.9288466056109122e+01  2.0419704617640836e+01  2.1444413397002094e+01  2.2196607761007545e+01  2.2857949244571902e+01  2.3321706173401289e+01  2.3476211883227297e+01  2.3455111888654223e+01  2.3466571622240000e+01  2.3275989267834461e+01  2.3121155972757652e+01  2.3054007013274674e+01  2.2937791197123939e+01  2.2519361061331647e+01  2.2327327945984280e+01  2.2230474842030095e+01  2.2173019458768717e+01  2.2143939