<?xml version="1.0"?>
<VTKFile type="UnstructuredGrid"  version="0.1"  >
<UnstructuredGrid>
<Piece  NumberOfPoints="2937" NumberOfCells="5112">
<Points>
<DataArray  type="Float64"  NumberOfComponents="3"  format="ascii">-20 2.5 0  -20 0 0  -1 0 0  -0.9996988186962042 0.02454122852291233 0  -0.9987954562051724 0.04906767432741797 0  -0.9972904566786902 0.07356456359966773 0  -0.9951847266721968 0.09801714032956083 0  -0.99247953459871 0.1224106751992163 0  -0.989176509964781 0.1467304744553618 0  -0.9852776423889412 0.1709618887603012 0  -0.9807852804032304 0.1950903220161286 0  -0.9757021300385285 0.21910124015687 0  -0.970031253194544 0.2429801799032641 0  -0.9637760657954398 0.2667127574748985 0  -0.9569403357322088 0.2902846772544624 0  -0.9495281805930367 0.3136817403988914 0  -0.9415440651830207 0.3368898533922203 0  -0.9329927988347388 0.3598950365349883 0  -0.9238795325112867 0.3826834323650899 0  -0.9142097557035307 0.4052413140049899 0  -0.9039892931234433 0.427555093430282 0  -0.8932243011955152 0.4496113296546069 0  -0.8819212643483549 0.4713967368259979 0  -0.8700869911087113 0.4928981922297841 0  -0.857728610000272 0.5141027441932218 0  -0.8448535652497071 0.5349976198870972 0  -0.8314696123025453 0.5555702330196022 0  -0.8175848131515836 0.5758081914178454 0  -0.8032075314806448 0.5956993044924335 0  -0.7883464276266062 0.6152315905806269 0  -0.773010453362737 0.6343932841636455 0  -0.7572088465064846 0.6531728429537766 0  -0.7409511253549589 0.6715589548470186 0  -0.7242470829514668 0.6895405447370671 0  -0.7071067811865475 0.7071067811865476 0  -0.6895405447370669 0.7242470829514669 0  -0.6715589548470184 0.740951125354959 0  -0.6531728429537765 0.7572088465064847 0  -0.6343932841636454 0.7730104533627371 0  -0.6152315905806267 0.7883464276266063 0  -0.5956993044924334 0.8032075314806449 0  -0.5758081914178453 0.8175848131515837 0  -0.555570233019602 0.8314696123025455 0  -0.534997619887097 0.8448535652497072 0  -0.5141027441932217 0.8577286100002721 0  -0.492898192229784 0.8700869911087115 0  -0.4713967368259977 0.881921264348355 0  -0.4496113296546067 0.8932243011955152 0  -0.4275550934302819 0.9039892931234434 0  -0.4052413140049897 0.9142097557035307 0  -0.3826834323650897 0.9238795325112867 0  -0.3598950365349882 0.9329927988347388 0  -0.3368898533922199 0.9415440651830208 0  -0.3136817403988914 0.9495281805930367 0  -0.2902846772544622 0.9569403357322089 0  -0.2667127574748983 0.9637760657954398 0  -0.2429801799032639 0.970031253194544 0  -0.2191012401568697 0.9757021300385286 0  -0.1950903220161282 0.9807852804032304 0  -0.1709618887603012 0.9852776423889412 0  -0.1467304744553616 0.989176509964781 0  -0.1224106751992162 0.99247953459871 0  -0.09801714032956065 0.9951847266721969 0  -0.07356456359966733 0.9972904566786902 0  -0.04906767432741801 0.9987954562051724 0  -0.02454122852291214 0.9996988186962042 0  6.123233995736766e-17 1 0  0.02454122852291226 0.9996988186962042 0  0.04906767432741813 0.9987954562051724 0  0.07356456359966745 0.9972904566786902 0  0.09801714032956077 0.9951847266721968 0  0.1224106751992163 0.99247953459871 0  0.1467304744553617 0.989176509964781 0  0.1709618887603014 0.9852776423889412 0  0.1950903220161283 0.9807852804032304 0  0.2191012401568698 0.9757021300385286 0  0.242980179903264 0.970031253194544 0  0.2667127574748984 0.9637760657954398 0  0.2902846772544623 0.9569403357322089 0  0.3136817403988916 0.9495281805930367 0  0.3368898533922201 0.9415440651830208 0  0.3598950365349883 0.9329927988347388 0  0.3826834323650898 0.9238795325112867 0  0.4052413140049899 0.9142097557035307 0  0.4275550934302822 0.9039892931234433 0  0.4496113296546066 0.8932243011955153 0  0.4713967368259978 0.8819212643483549 0  0.4928981922297841 0.8700869911087113 0  0.5141027441932217 0.8577286100002721 0  0.5349976198870973 0.844853565249707 0  0.5555702330196023 0.8314696123025452 0  0.5758081914178453 0.8175848131515837 0  0.5956993044924335 0.8032075314806448 0  0.6152315905806268 0.7883464276266062 0  0.6343932841636455 0.773010453362737 0  0.6531728429537768 0.7572088465064845 0  0.6715589548470183 0.7409511253549591 0  0.6895405447370669 0.7242470829514669 0  0.7071067811865476 0.7071067811865475 0  0.724247082951467 0.6895405447370668 0  0.7409511253549591 0.6715589548470183 0  0.7572088465064846 0.6531728429537768 0  0.773010453362737 0.6343932841636455 0  0.7883464276266063 0.6152315905806268 0  0.8032075314806449 0.5956993044924334 0  0.8175848131515837 0.5758081914178453 0  0.8314696123025452 0.5555702330196022 0  0.8448535652497071 0.5349976198870972 0  0.8577286100002721 0.5141027441932217 0  0.8700869911087115 0.492898192229784 0  0.881921264348355 0.4713967368259976 0  0.8932243011955153 0.4496113296546065 0  0.9039892931234433 0.4275550934302821 0  0.9142097557035307 0.4052413140049899 0  0.9238795325112867 0.3826834323650898 0  0.932992798834739 0.3598950365349881 0  0.9415440651830208 0.3368898533922201 0  0.9495281805930367 0.3136817403988915 0  0.9569403357322088 0.2902846772544623 0  0.9637760657954398 0.2667127574748984 0  0.970031253194544 0.2429801799032639 0  0.9757021300385286 0.2191012401568698 0  0.9807852804032304 0.1950903220161282 0  0.9852776423889412 0.1709618887603012 0  0.989176509964781 0.1467304744553617 0  0.99247953459871 0.1224106751992162 0  0.9951847266721969 0.0980171403295606 0  0.9972904566786902 0.07356456359966743 0  0.9987954562051724 0.04906767432741801 0  0.9996988186962042 0.02454122852291229 0  1 0 0  20 0 0  20 2.5 0  0 2.5 0  -10 2.5 0  10 2.5 0  -10.5 0 0  -5 2.5 0  10.5 0 0  5 2.5 0  -5.75 0 0  5.75 0 0  -15.25 0 0  -15 2.5 0  15.25 0 0  15 2.5 0  -17.625 0 0  -17.5 2.5 0  17.5 2.5 0  17.625 0 0  12.5 2.5 0  12.875 0 0  -12.5 2.5 0  -12.875 0 0  -2.5 2.5 0  2.5 2.5 0  -8.125 0 0  -7.5 2.5 0  8.125 0 0  7.5 2.5 0  -3.375 0 0  3.375 0 0  -18.75 2.5 0  20 1.25 0  16.4375 1.19375 0  -16.25 2.5 0  13.75 2.5 0  -14.0625 0 0  -11.6875 0 0  11.6875 0 0  8.75 2.5 0  -8.75 2.5 0  6.9375 0 0  6.25 2.5 0  -6.25 2.5 0  -9.3125 0 0  -6.9375 0 0  9.3125 0 0  11.25 2.5 0  -11.25 2.5 0  3.75 2.5 0  4.5625 0 0  -4.5625 0 0  -3.75 2.5 0  -13.75 2.5 0  14.0625 0 0  -16.4375 0 0  -20 1.25 0  -18.8125 0 0  18.75 2.5 0  -18.21875 1.2359375 0  18.125 1.278125 0  -15.84375 1.2125 0  -14.375 1.30859375 0  14.65625 1.203125 0  2.1875 0 0  -2.1875 0 0  13.125 1.315625 0  3.125 1.315625 0  -3.125 1.315625 0  -12.28125 1.1890625 0  -5.15625 1.184375 0  11.09375 1.184375 0  5.625 1.325 0  -10.97262068800044 1.220713793599868 0  9.375 1.32734375 0  -6.875 1.32734375 0  -9.67626828410207 1.24449497187193 0  8.061334925608099 1.312208731402025 0  -8.188665074391901 1.312208731402025 0  -1.25 2.5 0  1.25 2.5 0  4.37465139623265 1.41327350462657 0  16.25 2.5 0  6.84375467392576 1.430449641528851 0  -1.846573640185365 1.334702047669377 0  1.846573640185365 1.334702047669377 0  -17.02955351149946 1.396129584721571 0  16.4375 0 0  18.8125 0 0  -13.31314667860176 1.511193493282891 0  -4.122005747945582 0.961844908681634 0  12.12799425205442 0.961844908681634 0  15.54930641305724 1.660405980876393 0  19.0578783583929 0.9559530595267438 0  8.71875 0.6864560603786576 0  -7.53125 0.6864560603786576 0  -0.6257799091428727 1.819008129832856 0  0.6257799091428734 1.819008129832855 0  6.291331569065717 0.7194652423646902 0  -19.11204717950418 0.9044926794710327 0  -4.488713231834613 1.772186102355655 0  11.76128676816539 1.772186102355655 0  -19.28185607205105 1.781856072051052 0  19.30868080343342 1.808680803433421 0  9.90625 0.6371857066656857 0  -6.34375 0.6371857066656857 0  3.796921710049233 0.7617406159238448 0  7.392020585015773 0.7480839107774819 0  -8.910372062800235 0.7929553447587234 0  10.2506781820361 1.451853913138859 0  -5.999321817963904 1.451853913138859 0  4.957643119381741 0.7716423099297361 0  17.29984375 0.8640625 0  15.41193625859067 0.8279888354083842 0  -13.72251704931534 0.7728002662082776 0  16.875 2.5 0  17.12178336313261 1.690954734835967 0  -11.64001625260176 1.74572103154608 0  2.477726735235857 0.7850262278604345 0  13.46875 0 0  13.765625 0.7802887470308788 0  -2.78125 0 0  -2.477726735235857 0.7850262278604346 0  -10.33383379274331 1.744431431923121 0  13.91957519050334 1.653419259628842 0  -15.08147780274903 0.8341506893754731 0  -15.14066649024666 1.671962869821843 0  -8.950686484882164 1.678622661163363 0  -17.55392917606836 0.794731598412167 0  -16.80247533599675 0.6688259240674158 0  -12.94289066923278 0.7766744225472476 0  -9.90625 0 0  -10.31601468672093 0.7730817089126454 0  -18.21875 0 0  -12.28125 0 0  -17.68515668569534 1.768907656575843 0  18.21875 0 0  10.85059123027421 1.880344717307101 0  -5.399408769725794 1.880344717307101 0  -3.738137326223278 1.749164834446819 0  -3.125 2.5 0  12.46235897590077 1.601301060091387 0  -11.09375 0 0  -11.61661448001209 0.7781698802173554 0  -15.625 2.5 0  -1.764022608759088 0.6027229563180789 0  1.59375 0 0  -8.125 2.5 0  8.125 2.5 0  8.713468311289519 1.727645658498745 0  9.375 2.5 0  -7.536531688710481 1.727645658498745 0  -6.875 2.5 0  14.375 2.5 0  17.78381794101733 1.874391370085592 0  18.59891476281433 1.80649740393129 0  -18.58835555265984 1.824268641341969 0  1.806126122135773 0.6510673837470153 0  -16.875 2.5 0  -16.36681393636619 1.755298393865037 0  -16.13072438662071 0.6014017614895231 0  -13.92460230791385 1.83195710210235 0  -14.40198779087891 0.6105385965811564 0  20 0.625 0  19.40625 0 0  14.6875 1.888836596385542 0  14.65625 0 0  12.78248197181444 0.6991460920542635 0  -3.467518028185561 0.6991460920542635 0  13.125 2.5 0  2.491957142932539 1.738660596534321 0  3.125 2.5 0  1.875 2.5 0  3.718973573227002 1.75927763286174 0  -2.491957142932539 1.738660596534321 0  -1.875 2.5 0  -9.375 2.5 0  6.2001972846108 1.772767401802766 0  5.625 2.5 0  5.027483518098582 1.760895488350309 0  5.625981449127788 0.6566963631252629 0  -12.30101114679273 1.859484693920165 0  9.742489932362783 1.884363450023167 0  -6.507510067637216 1.884363450023166 0  1.13492303295015 1.283502262067074
[...]
<PointData  Scalars="f_4332918"> 
<DataArray  type="Float64"  Name="f_4332918"  format="ascii">1.0000429898099639e+00  9.9991095041501887e-01  -7.9819870108140462e-05  -4.5649135364719409e-05  1.2768858732242911e-05  -2.0288207751336366e-04  -9.9762756160913261e-05  2.5955289132306491e-05  -4.7458027916250493e-05  -1.5496168547974286e-05  1.1976574966749616e-03  9.4384405673385434e-06  -7.3872214700660977e-05  -7.8270710085993851e-05  -4.2085979501312803e-05  3.2178836002135869e-06  1.2064865504149321e-05  3.5524083000307224e-06  3.6421515198826583e-06  1.1754581178515648e-06  5.2189929812562141e-08  -5.7406544058132764e-07  2.6304674517044538e-06  3.1440140300390509e-06  5.3437829925041541e-07  5.1890590632699141e-06  1.1353406292678493e-05  2.5144079652624074e-05  2.1265896609659853e-05  2.5166299559249174e-05  2.8121883596261480e-05  3.7396970635748567e-06  1.2080162688260973e-05  3.1916158640823450e-05  3.6118985234405767e-05  2.6690281162912973e-05  2.0485530934665246e-05  9.8341795493670914e-06  2.6781615166247054e-05  1.0550623985882527e-04  6.7986881072135141e-05  1.8032347723720765e-05  4.3106180202001389e-05  4.9300323893620148e-05  9.1357517369622851e-05  1.1643229480480283e-04  2.1190799088283145e-03  5.6546348158967934e-05  5.8067060087650850e-05  4.4072558859345974e-05  1.0765603397467456e-04  1.8930908432165388e-04  6.4249072959340217e-05  6.4290900206856929e-05  6.0760159644152689e-05  2.7005176772109405e-04  3.6477707890773841e-04  2.0491786772246614e-04  2.0702671057066065e-04  3.3073274863176192e-04  1.1105352852231586e-04  1.5173053458806605e-04  2.8493677165928412e-04  2.3277200087752975e-04  1.6908858745983126e-04  1.8857612664480562e-04  1.6378607638237771e-04  1.4334210979075507e-04  2.2067835115367843e-04  5.8780474957325310e-05  1.4905185192223760e-04  2.2056895997159631e-04  2.0027332354435995e-04  1.2478626017429256e-04  1.5953758806174252e-04  1.9631821870457161e-04  2.0820868979990742e-04  1.1215648149399206e-04  2.6124787199628182e-03  1.1680380353973521e-04  1.6235978284602948e-04  7.8902040242526486e-05  8.0359861602252280e-05  1.2998316585719806e-04  1.4010550522335259e-04  1.3381551386167499e-04  2.7925329769740517e-04  6.5657556331700609e-05  5.7249375237255778e-05  1.1955444965721958e-04  1.5588033410445832e-04  5.3381810088431451e-05  3.6050296238598446e-05  1.8807289843928394e-05  6.4170120224774638e-05  3.2707621214458872e-05  2.5416703372094882e-06  7.9652857161003975e-05  1.7499204086957051e-05  3.5069733425691525e-06  4.6096184862221424e-05  -2.0457237818479984e-05  -2.8690557715668327e-05  -5.6196783579461950e-06  -9.3915761305222488e-06  8.3706034661156230e-06  1.6998009234348884e-05  -7.1617964947400137e-06  -1.9330748289823550e-05  -6.0297632408523541e-05  -1.8889186495346074e-05  1.9247907585185226e-05  -1.7675085333257160e-05  -2.3856837174695575e-05  2.0659947982111774e-06  -1.8403581076719230e-04  -1.2320299800315767e-05  -1.5763812738225625e-05  -1.1306852625872699e-05  -9.5436800008762031e-06  -2.0718575277569505e-04  -9.2431745722150287e-05  -6.7868390639952482e-05  -7.3180622470153697e-06  -1.5012677108682001e-05  -4.3282343865932693e-05  -1.1123061125116525e-04  -6.9841616033419288e-05  -2.4127890895034223e-06  -1.1138984202161825e-06  -4.1134512476297152e-06  9.9998739223686528e-01  1.0000000126491611e+00  1.0486152077582422e+00  1.0000001119094566e+00  9.9999451044185139e-01  9.9998352674521040e-01  1.0004012590291136e+00  1.0001405319943357e+00  1.0004028408654346e+00  9.9272188266431138e-01  9.7690653221284973e-01  9.9943495987306208e-01  1.0000060769636352e+00  9.9998872541172179e-01  9.9999989439383996e-01  9.9789410437919301e-01  1.0001235982821262e+00  9.9999995474168013e-01  9.9998710537692814e-01  9.9999931398267372e-01  1.0000124670783996e+00  1.0000011723893196e+00  9.9992183466923579e-01  1.0157003685178447e+00  1.0272317976842178e+00  9.9968969763736315e-01  1.0000098568163835e+00  9.9909384332709394e-01  9.9997417426829394e-01  8.6032879051631483e-01  7.6604191579402281e-01  1.0001378551877809e+00  9.9999056301318745e-01  9.9999033783869895e-01  1.0000347533682179e+00  9.9999970609841426e-01  9.9977737788109311e-01  9.9997385166379082e-01  1.0000594928317326e+00  9.9995922117157188e-01  1.0000000691662967e+00  9.9411356611333124e-01  1.0001387558902379e+00  1.0000161802814533e+00  9.9994096514649500e-01  9.9851712041939411e-01  1.0000970569099390e+00  9.9999479746561915e-01  1.0000003147483993e+00  1.0030652526035482e+00  9.2086803966015618e-01  9.6723627567219106e-01  1.0025051539684429e+00  1.0000020437401258e+00  9.9999422102151603e-01  9.9878204439202134e-01  9.9998203696156718e-01  9.9753562489764047e-01  9.9999996748114905e-01  1.0001648888710595e+00  9.9999084655220460e-01  1.0001561774253742e+00  1.0000946599134533e+00  9.9998960161950712e-01  3.9544095605983981e-01  5.2890854923935315e-01  9.9998396639145004e-01  1.0832094760773356e+00  1.0612201264538248e+00  1.0000094740323151e+00  1.0039818128669691e+00  9.9996977010967536e-01  1.0109871491024811e+00  1.0000048822189453e+00  9.9999070177541294e-01  1.0006780314454655e+00  1.0000128214947410e+00  1.0005633103047653e+00  1.0001168440270576e+00  1.0304759742551253e+00  1.0341601504802567e+00  1.0396536766977096e+00  9.9999998403902579e-01  1.0038587084966086e+00  1.2178852093508015e+00  1.2163634066963913e+00  1.0006559138956135e+00  9.9998734074163342e-01  9.9998710169443561e-01  1.0000643338618587e+00  9.9864352469786200e-01  9.9999251544654766e-01  9.9999241710550679e-01  9.9998926734257410e-01  9.9984923951520044e-01  9.9980353457310778e-01  2.1665848858526391e+00  2.0902832180950224e+00  9.9480551525116823e-01  9.9846475634194554e-01  1.0206339567470941e+00  9.9995089631773371e-01  1.0021710022204506e+00  9.9999413965124051e-01  1.0000570773752488e+00  9.9877398007307883e-01  9.6042139284260641e-01  9.9861218739013835e-01  9.9998464216313498e-01  9.9992927903864948e-01  1.0023953733254165e+00  9.8470793389415012e-01  9.9998890921495587e-01  9.9998912734024747e-01  9.9993760005512811e-01  9.9999996867625895e-01  9.9999329086433209e-01  1.0000169031555184e+00  9.0497368079575002e-01  1.0000013152067004e+00  9.9999193341289716e-01  7.2364907026993397e-01  8.7775201141691372e-01  1.0000101384586357e+00  9.9998757781316050e-01  9.9984671204523745e-01  1.0003552402666716e+00  1.0000510616289098e+00  9.9913482338647053e-01  9.9920841800236593e-01  9.9997163188907756e-01  9.9997322062537930e-01  9.9999600548620582e-01  9.9746105891808856e-01  9.9995617270790094e-01  1.0016949753356563e+00  9.9998711083354297e-01  9.9991267531954087e-01  1.0056234264765613e+00  1.0559085138790323e+00  9.9854545641827430e-01  9.9997107991742185e-01  9.9998330127903967e-01  9.9999211024760015e-01  1.0000296446193471e+00  5.9208530628250311e-01  1.5371690566224308e-01  9.9999969754123053e-01  9.9992975443450716e-01  1.0001978664874034e+00  9.9999349607974264e-01  1.0003482855279435e+00  1.0000019502155892e+00  9.9999983154088834e-01  9.9999464838780072e-01  9.9999413378059188e-01  1.0030161895433916e+00  6.7657060652317280e-01  1.0000686471620874e+00  1.0008177508689056e+00  9.9940848868608245e-01  1.0001388939017806e+00  9.9982880390084305e-01  9.9998812221178457e-01  9.9998725235086794e-01  9.9999264414709432e-01  9.9999070488096975e-01  1.0000002794249221e+00  9.5171188327296175e-01  9.9999965883584974e-01  1.2301978873565091e+00  1.0135793605347130e+00  1.0217888029784135e+00  1.0969628798789730e+00  1.2336859326573879e+00  1.0333778803473577e+00  1.0000004350326106e+00  1.0094222737311309e+00  9.9976499994096701e-01  1.0323239766886005e+00  9.8744867903163125e-01  1.0000309004855663e+00  9.9989244449242631e-01  1.0012620907735199e+00  1.3057807533880235e+00  1.3487801047916297e+00  1.0000251506876923e+00  9.8979687928800064e-01  1.0000461768988269e+00  9.9766497285782474e-01  9.9999404811926573e-01  8.9217982343329749e-01  9.9998774823834879e-01  9.9998829098518649e-01  9.9990529544001050e-01  9.9935742918136217e-01  1.0019264798572078e+00  1.5501287817042939e+00  1.5466755259763514e+00  1.0000097487335786e+00  1.0000326609530785e+00  9.3026427510254395e-01  1.0000168547298847e+00  9.9998196989589572e-01  9.9998812663178260e-01  1.0002787124695331e+00  1.0000002229251255e+00  9.9822129277251359e-01  9.9925910395294126e-01  1.0000073172379429e+00  1.0000048850496313e+00  9.9982644389209796e-01  9.9936958404606424e-01  2.3596306106582876e+00  1.0000002491161841e+00  9.9999995415569554e-01  9.9999992385297609e-01  1.0005470212753489e+00  9.9999734475058177e-01  9.9956710099762447e-01  1.0912130358445133e+00  1.0458112639255608e+00  9.9999996647480838e-01  9.9981282094158896e-01  9.9999462704570230e-01  9.9999996434285976e-01  9.9999423861932091e-01  9.9997246323358824e-01  1.0005701982206716e+00  9.9999135675792428e-01  9.9998797568089048e-01  9.8419644896014491e-01  1.0001026316420460e+00  9.9998960795752223e-01  1.0002338574550165e+00  1.0000976026519588e+00  1.0006467697899613e+00  9.9997239548747252e-01  9.9937071770023955e-01  1.0000146605804558e+00  2.6892162615004078e-01  9.9963492166958035e-01  9.9986663713678159e-01  9.5576458341011894e-01  9.9986559142998210e-01  9.9739652038924032e-01  8.5704646461140832e-01  9.9679648729300407e-01  1.0001587480867260e+00  9.8778815037882350e-01  9.9932820880674589e-01  9.9984071772433580e-01  9.9833412076895667e-01  9.9915067851496220e-01  6.0662260512805877e-01  9.9998711799196027e-01  1.1544444587815925e+00  9.9998010697317630e-01  1.1120513526146496e+00  1.0162917974656038e+00  1.0001077347862088e+00  9.9998797491405589e-01  9.5258332757128517e-01  9.9949939184289616e-01  1.0012090389428756e+00  9.9579516596881157e-01  9.9998980716799946e-01  1.0472363009521246e+00  9.9999124274749707e-01  1.0000257691003631e+00  1.0000659470083981e+00  9.9999040826080576e-01  1.0023748208368357e+00  9.9989445228004747e-01  1.0000527817110834e+00  1.0034698812778433e+00  1.0001065270799050e+00  1.0083373060681908e+00  9.9997706538703413e-01  1.0236837841294382e+00  1.0045712440061674e+00  1.0000790355692837e+00  1.0002034844967185e+00  1.0001418356512846e+00  1.0006319529539331e+00  9.9995004748890148e-01  9.9996787526180086e-01  9.9812809955235438e-01  1.0011054649489324e+00  9.9998794850444361e-01  9.6594036374314518e-01  1.0000280738294345e+00  9.9999572229089795e-01  9.9999026071618624e-01  1.0434970920239266e+00  8.5589727980533226e-01  1.0156985040893474e+00  9.9998978399670002e-01  9.9999087342327764e-01  9.9999330114750951e-01  1.0299110604247166e+00  1.0003698990652334e+00  1.2950062801450490e+00  1.3810635727906482e+00  1.0000061335138579e+00  1.0001532778853761e+00  1.0000088384748882e+00  9.9999163480226283e-01  9.9998391245005636e-01  9.9998719558001692e-01  9.9999217885938241e-01  1.0003941689454257e+00  9.9998871421752500e-01  5.7220905640965736e-01  9.9998465173882511e-01  1.0955233240430922e+00  1.1151976930492482e+00  9.9776255561799798e-01  9.9890444393572564e-01  9.9920598014533490e-01  9.9841380537753766e-01  9.9999669747756892e-01  5.8410933374741048e-01  1.7586894596137321e+00  1.7335951613440139e+00  1.7486521444336454e+00  1.7656086671028233e+00  9.9991606999842308e-01  9.9967465703857605e-01  9.9998827415403679e-01  1.0597653769354862e+00  9.9999279477228387e-01  1.0000256783634434e+00  9.9999049027907549e-01  9.9998763925312983e-01  1.0000034473013499e+00  1.0000632052447649e+00  9.9141202158361308e-01  1.0001545125256657e+00  1.0000013450399416e+00  1.0105014343490970e+00  9.9993468724950141e-01  9.9998951766488320e-01  9.9952092239214241e-01  9.9966068244080997e-01  9.9931185070934092e-01  1.0039311140034679e+00  9.9997184268266559e-01  1.0023250383274040e+00  9.8571283627761830e-01  1.0000769029849403e+00  9.9998309605925961e-01  1.0030253883158229e+00  9.9999615643472561e-01  1.1431753096813759e+00  9.9994366202801477e-01  1.0111322566923282e+00  9.9996760308766275e-01  1.0225660147525435e+00  1.0000187121866384e+00  9.9993359793828474e-01  1.0000055354404711e+00  9.9999714865414746e-01  9.9999691004579361e-01  1.0000390013348754e+00  1.9560624945282323e+00  1.8832386187522887e+00  9.9998781195577136e-01  9.9996855389711059e-01  9.9999371360218281e-01  1.0004796722507232e+00  1.0010090178817304e+00  1.0020638091649769e+00  9.9993714493630137e-01  9.9987373041757444e-01  1.0002754028338801e+00  9.9999670036780941e-01  9.9988967776878845e-01  1.0002051878642184e+00  9.9994987687970038e-01  9.1204444599361822e-01  1.0154797159132620e+00  9.9643347191881404e-01  1.0001554019490648e+00  9.9998410863968867e-01  1.0000134057627226e+00  1.0001100337688940e+00  9.9614336607958998e-01  1.0150805201363300e+00  8.6342145277134086e-01  9.9978284532637762e-01  1.0015608269017384e+00  9.5043266038461671e-01  9.9998921780104588e-01  2.5535971350274578e-01  9.9889755844021733e-01  1.0000165659244997e+00  9.1722192712141526e-01  1.3438548775787016e+00  9.9998907944072413e-01  1.0008233300384759e+00  9.9999170079542266e-01  9.9993741130497649e-01  9.9988293337814693e-01  9.9996110735322141e-01  1.0001696225066112e+00  1.0000113089710265e+00  1.0000112757994168e+00  1.0048528519742979e+00  1.0000902660249229e+00  1.0000431704160240e+00  1.0000285206350512e+00  1.2888333770973279e+00  1.0001065914668901e+00  9.9822744717188405e-01  9.9997144867153864e-01  9.9985061768480288e-01  1.0000018777161910e+00  9.9998883855946985e-01  1.0006720428536451e+00  9.9826120660227169e-01  7.3309198395075581e-01  6.5949593267661155e-01  9.9928772373072861e-01  9.9995267094276508e-01  9.9999995529425134e-01  9.9999602450781855e-01  1.0003420452593181e+00  9.9999826338730247e-01  9.7374840274794672e-01  9.6917905621980027e-01  1.0189307228012983e+00  9.9999763688221344e-01  1.6205356439314864e+00  1.0596672986457401e+00  1.2261148285419554e+00  1.0000060404649360e+00  1.0000140197947669e+00  9.9999756279063734e-01  6.1820394984438032e-01  1.0019741339344197e+00  9.9994549807036293e-01  1.0002949525954345e+00  1.0000993161769047e+00  1.0014823819649692e+00  9.9999227240445365e-01  9.9998930469849623e-01  1.0000826536325962e+00  9.9997796250617199e-01  1.0000088905194995e+00  9.9999645876976717e-01  1.0002835244718877e+00  2.3283460845921489e-01  9.9999397165880377e-01  9.7038702946347544e-01  1.0000031492852701e+00  9.7850424681524761e-01  1.0002046633891100e+00  9.9998869243383970e-01  1.0001519138037942e+00  1.0000792521162432e+00  9.7685059049035383e-01  9.9870850876727058e-01  1.0000809140255176e+00  1.0008987931885356e+00  1.0000749856169888e+00  1.0000109386937315e+00  9.9999180673628996e-01  1.0000217327212051e+00  9.9999904671269524e-01  1.1132800112824286e+00  1.0000184709996578e+00  1.0695846695618827e+00  9.9974009756304238e-01  1.0001001656162944e+00  1.0659740380721749e+00  1.4469484745993964e+00  9.6622475248105566e-01  1.0881824305242385e+00  1.1864999019423399e+00  1.0000871847549755e+00  9.9998753707200405e-01  9.9999291867642881e-01  1.0058694762628233e+00  9.9999488316717555e-01  9.9994530947892712e-01  9.9999554014544556e-01  9.9998905156252837e-01  1.0001096433227443e+00  9.9999317942089672e-01  9.9998947539826155e-01  1.0070384909478760e+00  1.0004857550360295e+00  1.0004727224766474e+00  1.0015571025365997e+00  1.0053581308138164e+00  1.0797272863483427e+00  1.5167473501852580e+00  9.9967580551001400e-01  9.9856928559786773e-01  9.9901084467513313e-01  9.9912895249691580e-01  9.9993346050746867e-01  9.9985719655526784e-01  9.9998635157105853e-01  1.1609297681299875e+00  1.0246354206754464e+00  9.9138104338046529e-01  9.9153351636677556e-01  1.0000300209755619e+00  5.7349996687745530e-01  9.9993340724139324e-01  1.0013165724205007e+00  1.0004390358771165e+00  1.0008630267782204e+00  1.7813506007841258e+00  9.9999006199955753e-01  1.0662470521297525e+00  1.0000812054706882e+00  1.0280784469378068e+00  9.1532346121612895e-01  9.9998785013128555e-01  9.8956260623332926e-01  1.0001189225042468e+00  1.0016555962234810e+00  1.0842151637145419e+00  1.0206853663516922e+00  9.9909573543763397e-01  9.9999174711280359e-01  9.9990658306503399e-01  1.0000539393039214e+00  9.9999862614014778e-01  1.0039036378994943e+00  9.9998786528295946e-01  9.9995950821415347e-01  1.0136549421229093e+00  1.1539600476930192e+00  1.0000083937108859e+00  9.9998877678380638e-01  1.8395042255470946e+00  1.0026356647505261e+00  1.0011967629046787e+00  1.0096423469416196e+00  1.0335430655607916e+00  6.9262471862076458e-01  1.3583333264867206e+00  7.5397491276933992e-01  7.1950629115763198e-01  9.9997734972171193e-01  9.9998946694787216e-01  1.0000002241213855e+00  1.0000974034497867e+00  9.9284578663557410e-01  1.0000317327450108e+00  1.0006026725033446e+00  9.9999012170408097e-01  9.9989848110163937e-01  9.9996155846828860e-01  1.0000070298866444e+00  9.9954721784900769e-01  1.0000000022347539e+00  9.9999697444313884e-01  8.9251786130315369e-01  1.0000000041074537e+00  9.9999392725503111e-01  1.0007982812801259e+00  9.9867403604834004e-01  9.9998893732191507e-01  9.9999930913991086e-01  8.8000841319001388e-01  9.9260113647227088e-01  9.9998928891521199e-01  9.9974724435074469e-01  1.0016934436466913e+00  9.9998457384401318e-01  9.9971530522993157e-01  9.9980345037457774e-01  1.0000136266329993e+00  9.9870040001635363e-01  1.0000005003386376e+00  9.9998738324240843e-01  1.0011217817020559e+00  1.0023229867281911e+00  1.0000074187245143e+00  9.9994106066676269e-01  9.9755672613668289e-01  1.0001256157977032e+00  1.0000943458762741e+00  1.0000990406754675e+00  9.9996178669247660e-01  9.9999360759663936e-01  9.9999067198588865e-01  9.9999547789350318e-01  9.9999557677790907e-01  4.1757728814215367e-01  3.8616152469745252e-01  1.0000102114663794e+00  1.0000029228349037e+00  1.0000315834711266e+00  9.9998748730568643e-01  9.9998713089587776e-01  1.0000110368560515e+00  1.8557374876629744e+00  1.1254723680493193e+00  1.8265704818095163e+00  1.0004511664133819e+00  9.9999592529087644e-01  1.0006650681776352e+00  1.0000107227147019e+00  9.8958070162169465e-01  1.0000463123774683e+00  9.7456800575180091e-01  9.9819143410124533e-01  9.9777481424160896e-01  9.9999401901071527e-01  9.9952918723096884e-01  9.9898461664964788e-01  9.1403268516610126e-01  7.8732439885184691e-01  9.9999185783105360e-01  9.9998891186861616e-01  9.9998731928525697e-01  1.0442466410401277e+00  9.7960009202620524e-01  1.0000118729143284e+00  9.9990057386881603e-01  1.0016850871057732e+00  1.0010129381378439e+00  9.9989799340968233e-01  1.0008628863868076e+00  9.9992344959756085e-01  9.9998767145849521e-01  9.9998749684786659e-01  9.9998784148989484e-01  1.0000208022919692e+00  9.9926849754671088e-01  1.0000003127651123e+00  9.9999994850416207e-01  9.9999976328065032e-01  9.9118347932286821e-01  9.9971600140262284e-01  1.0566686864197254e+00  1.0033292212010463e+00  9.9991245583997179e-01  9.9996728466814844e-01  9.9977279255214668e-01  9.9905943107838568e-01  9.9999927557032298e-01  1.0030131214366189e+00  9.9961982863656718e-01  1.4071345034683953e+00  1.5225157335128630e+00  1.4681613526295010e+00  1.3763174616401759e+00  9.9998706676892057e-01  1.0000001801358895e+00  9.9998746105487857e-01  1.0000200645539723e+00  9.9995685566692993e-01  9.9997831266648141e-01  9.9782591591037539e-01  9.9998656035440669e-01  9.9851830390975727e-01  9.9998937359244344e-01  9.6778545253001969e-01  1.0000517186457527e+00  1.0003067454948997e+00  1.0000891801109202e+00  1.0000686377011319e+00  1.2729448300917110e+00  9.9999134602541317e-01  1.6489447476269821e+00  1.4390783966489722e+00  1.0000267343479379e+00  1.0001228250759371e+00  9.9719543158122870e-01  1.0000587111121659e+00  9.8408351679455686e-01  1.0000300652376595e+00  7.9755342107386173e-01  1.0009737291012695e+00  1.0000609270946179e+00  9.9999579372115655e-01  9.9998813646928153e-01  9.9999189973432157e-01  2.2381653179592096e+00  1.9574774351204438e+00  2.3007555384963445e+00  1.2226318308179467e+00  9.9998724447489329e-01  9.9999731731954244e-01  9.9999706829197299e-01  3.9427641455643164e-01  9.9999719461511627e-01  1.2884491186953464e+00  9.9998739092102162e-01  9.9998859134162454e-0