<?xml version="1.0"?>
<VTKFile type="UnstructuredGrid"  version="0.1"  >
<UnstructuredGrid>
<Piece  NumberOfPoints="2401" NumberOfCells="4608">
<Points>
<DataArray  type="Float64"  NumberOfComponents="3"  format="ascii">0 0 0  0.001070538380698371 0 0  0.004277569313095364 0 0  0.009607359798386061 0 0  0.01703708685546806 0 0  0.02653493525245065 0 0  0.03806023374436157 0 0  0.05156362923366253 0 0  0.06698729810778931 0 0  0.08426519384873815 0 0  0.1033233298543955 0 0  0.1240800962605269 0 0  0.1464466094067445 0 0  0.1703270924499866 0 0  0.1956192854956637 0 0  0.2222148834902257 0 0  0.2500000000000299 0 0  0.2788556548905322 0 0  0.308658283817491 0 0  0.339280267348458 0 0  0.3705904774487813 0 0  0.4024548389919803 0 0  0.4347369038900211 0 0  0.467298435384978 0 0  0.5000000000000517 0 0  0.5327015646151253 0 0  0.5652630961100813 0 0  0.5975451610081212 0 0  0.6294095225513188 0 0  0.6607197326516399 0 0  0.6913417161826045 0 0  0.7211443451095605 0 0  0.7500000000000597 0 0  0.7777851165098603 0 0  0.8043807145044185 0 0  0.829672907550091 0 0  0.8535533905933287 0 0  0.8759199037395413 0 0  0.8966766701456674 0 0  0.9157348061513193 0 0  0.9330127018922625 0 0  0.9484363707663832 0 0  0.961939766255678 0 0  0.9734650647475827 0 0  0.9829629131445586 0 0  0.9903926402016341 0 0  0.9957224306869181 0 0  0.9989294616193084 0 0  1 0 0  0 0.02083333333333333 0  0.001070538380698371 0.02083333333333333 0  0.004277569313095364 0.02083333333333333 0  0.009607359798386061 0.02083333333333333 0  0.01703708685546806 0.02083333333333333 0  0.02653493525245065 0.02083333333333333 0  0.03806023374436157 0.02083333333333333 0  0.05156362923366253 0.02083333333333333 0  0.06698729810778931 0.02083333333333333 0  0.08426519384873815 0.02083333333333333 0  0.1033233298543955 0.02083333333333333 0  0.1240800962605269 0.02083333333333333 0  0.1464466094067445 0.02083333333333333 0  0.1703270924499866 0.02083333333333333 0  0.1956192854956637 0.02083333333333333 0  0.2222148834902257 0.02083333333333333 0  0.2500000000000299 0.02083333333333333 0  0.2788556548905322 0.02083333333333333 0  0.308658283817491 0.02083333333333333 0  0.339280267348458 0.02083333333333333 0  0.3705904774487813 0.02083333333333333 0  0.4024548389919803 0.02083333333333333 0  0.4347369038900211 0.02083333333333333 0  0.467298435384978 0.02083333333333333 0  0.5000000000000517 0.02083333333333333 0  0.5327015646151253 0.02083333333333333 0  0.5652630961100813 0.02083333333333333 0  0.5975451610081212 0.02083333333333333 0  0.6294095225513188 0.02083333333333333 0  0.6607197326516399 0.02083333333333333 0  0.6913417161826045 0.02083333333333333 0  0.7211443451095605 0.02083333333333333 0  0.7500000000000597 0.02083333333333333 0  0.7777851165098603 0.02083333333333333 0  0.8043807145044185 0.02083333333333333 0  0.829672907550091 0.02083333333333333 0  0.8535533905933287 0.02083333333333333 0  0.8759199037395413 0.02083333333333333 0  0.8966766701456674 0.02083333333333333 0  0.9157348061513193 0.02083333333333333 0  0.9330127018922625 0.02083333333333333 0  0.9484363707663832 0.02083333333333333 0  0.961939766255678 0.02083333333333333 0  0.9734650647475827 0.02083333333333333 0  0.9829629131445586 0.02083333333333333 0  0.9903926402016341 0.02083333333333333 0  0.9957224306869181 0.02083333333333333 0  0.9989294616193084 0.02083333333333333 0  1 0.02083333333333333 0  0 0.04166666666666666 0  0.001070538380698371 0.04166666666666666 0  0.004277569313095364 0.04166666666666666 0  0.009607359798386061 0.04166666666666666 0  0.01703708685546806 0.04166666666666666 0  0.02653493525245065 0.04166666666666666 0  0.03806023374436157 0.04166666666666666 0  0.05156362923366253 0.04166666666666666 0  0.06698729810778931 0.04166666666666666 0  0.08426519384873815 0.04166666666666666 0  0.1033233298543955 0.04166666666666666 0  0.1240800962605269 0.04166666666666666 0  0.1464466094067445 0.04166666666666666 0  0.1703270924499866 0.04166666666666666 0  0.1956192854956637 0.04166666666666666 0  0.2222148834902257 0.04166666666666666 0  0.2500000000000299 0.04166666666666666 0  0.2788556548905322 0.04166666666666666 0  0.308658283817491 0.04166666666666666 0  0.339280267348458 0.04166666666666666 0  0.3705904774487813 0.04166666666666666 0  0.4024548389919803 0.04166666666666666 0  0.4347369038900211 0.04166666666666666 0  0.467298435384978 0.04166666666666666 0  0.5000000000000517 0.04166666666666666 0  0.5327015646151253 0.04166666666666666 0  0.5652630961100813 0.04166666666666666 0  0.5975451610081212 0.04166666666666666 0  0.6294095225513188 0.04166666666666666 0  0.6607197326516399 0.04166666666666666 0  0.6913417161826045 0.04166666666666666 0  0.7211443451095605 0.04166666666666666 0  0.7500000000000597 0.04166666666666666 0  0.7777851165098603 0.04166666666666666 0  0.8043807145044185 0.04166666666666666 0  0.829672907550091 0.04166666666666666 0  0.8535533905933287 0.04166666666666666 0  0.8759199037395413 0.04166666666666666 0  0.8966766701456674 0.04166666666666666 0  0.9157348061513193 0.04166666666666666 0  0.9330127018922625 0.04166666666666666 0  0.9484363707663832 0.04166666666666666 0  0.961939766255678 0.04166666666666666 0  0.9734650647475827 0.04166666666666666 0  0.9829629131445586 0.04166666666666666 0  0.9903926402016341 0.04166666666666666 0  0.9957224306869181 0.04166666666666666 0  0.9989294616193084 0.04166666666666666 0  1 0.04166666666666666 0  0 0.0625 0  0.001070538380698371 0.0625 0  0.004277569313095364 0.0625 0  0.009607359798386061 0.0625 0  0.01703708685546806 0.0625 0  0.02653493525245065 0.0625 0  0.03806023374436157 0.0625 0  0.05156362923366253 0.0625 0  0.06698729810778931 0.0625 0  0.08426519384873815 0.0625 0  0.1033233298543955 0.0625 0  0.1240800962605269 0.0625 0  0.1464466094067445 0.0625 0  0.1703270924499866 0.0625 0  0.1956192854956637 0.0625 0  0.2222148834902257 0.0625 0  0.2500000000000299 0.0625 0  0.2788556548905322 0.0625 0  0.308658283817491 0.0625 0  0.339280267348458 0.0625 0  0.3705904774487813 0.0625 0  0.4024548389919803 0.0625 0  0.4347369038900211 0.0625 0  0.467298435384978 0.0625 0  0.5000000000000517 0.0625 0  0.5327015646151253 0.0625 0  0.5652630961100813 0.0625 0  0.5975451610081212 0.0625 0  0.6294095225513188 0.0625 0  0.6607197326516399 0.0625 0  0.6913417161826045 0.0625 0  0.7211443451095605 0.0625 0  0.7500000000000597 0.0625 0  0.7777851165098603 0.0625 0  0.8043807145044185 0.0625 0  0.829672907550091 0.0625 0  0.8535533905933287 0.0625 0  0.8759199037395413 0.0625 0  0.8966766701456674 0.0625 0  0.9157348061513193 0.0625 0  0.9330127018922625 0.0625 0  0.9484363707663832 0.0625 0  0.961939766255678 0.0625 0  0.9734650647475827 0.0625 0  0.9829629131445586 0.0625 0  0.9903926402016341 0.0625 0  0.9957224306869181 0.0625 0  0.9989294616193084 0.0625 0  1 0.0625 0  0 0.08333333333333333 0  0.001070538380698371 0.08333333333333333 0  0.004277569313095364 0.08333333333333333 0  0.009607359798386061 0.08333333333333333 0  0.01703708685546806 0.08333333333333333 0  0.02653493525245065 0.08333333333333333 0  0.03806023374436157 0.08333333333333333 0  0.05156362923366253 0.08333333333333333 0  0.06698729810778931 0.08333333333333333 0  0.08426519384873815 0.08333333333333333 0  0.1033233298543955 0.08333333333333333 0  0.1240800962605269 0.08333333333333333 0  0.1464466094067445 0.08333333333333333 0  0.1703270924499866 0.08333333333333333 0  0.1956192854956637 0.08333333333333333 0  0.2222148834902257 0.08333333333333333 0  0.2500000000000299 0.08333333333333333 0  0.2788556548905322 0.08333333333333333 0  0.308658283817491 0.08333333333333333 0  0.339280267348458 0.08333333333333333 0  0.3705904774487813 0.08333333333333333 0  0.4024548389919803 0.08333333333333333 0  0.4347369038900211 0.08333333333333333 0  0.467298435384978 0.08333333333333333 0  0.5000000000000517 0.08333333333333333 0  0.5327015646151253 0.08333333333333333 0  0.5652630961100813 0.08333333333333333 0  0.5975451610081212 0.08333333333333333 0  0.6294095225513188 0.08333333333333333 0  0.6607197326516399 0.08333333333333333 0  0.6913417161826045 0.08333333333333333 0  0.7211443451095605 0.08333333333333333 0  0.7500000000000597 0.08333333333333333 0  0.7777851165098603 0.08333333333333333 0  0.8043807145044185 0.08333333333333333 0  0.829672907550091 0.08333333333333333 0  0.8535533905933287 0.08333333333333333 0  0.8759199037395413 0.08333333333333333 0  0.8966766701456674 0.08333333333333333 0  0.9157348061513193 0.08333333333333333 0  0.9330127018922625 0.08333333333333333 0  0.9484363707663832 0.08333333333333333 0  0.961939766255678 0.08333333333333333 0  0.9734650647475827 0.08333333333333333 0  0.9829629131445586 0.08333333333333333 0  0.9903926402016341 0.08333333333333333 0  0.9957224306869181 0.08333333333333333 0  0.9989294616193084 0.08333333333333333 0  1 0.08333333333333333 0  0 0.1041666666666667 0  0.001070538380698371 0.1041666666666667 0  0.004277569313095364 0.1041666666666667 0  0.009607359798386061 0.1041666666666667 0  0.01703708685546806 0.1041666666666667 0  0.02653493525245065 0.1041666666666667 0  0.03806023374436157 0.1041666666666667 0  0.05156362923366253 0.1041666666666667 0  0.06698729810778931 0.1041666666666667 0  0.08426519384873815 0.1041666666666667 0  0.1033233298543955 0.1041666666666667 0  0.1240800962605269 0.1041666666666667 0  0.1464466094067445 0.1041666666666667 0  0.1703270924499866 0.1041666666666667 0  0.1956192854956637 0.1041666666666667 0  0.2222148834902257 0.1041666666666667 0  0.2500000000000299 0.1041666666666667 0  0.2788556548905322 0.1041666666666667 0  0.308658283817491 0.1041666666666667 0  0.339280267348458 0.1041666666666667 0  0.3705904774487813 0.1041666666666667 0  0.4024548389919803 0.1041666666666667 0  0.4347369038900211 0.1041666666666667 0  0.467298435384978 0.1041666666666667 0  0.5000000000000517 0.1041666666666667 0  0.5327015646151253 0.1041666666666667 0  0.5652630961100813 0.1041666666666667 0  0.5975451610081212 0.1041666666666667 0  0.62
[...]
<PointData  Scalars="f_11969676"> 
<DataArray  type="Float64"  Name="f_11969676"  format="ascii">1.0000000000000002e+00  9.9884428034635198e-01  9.9538206985690003e-01  9.8962818685969267e-01  9.8160724348789108e-01  9.7135354697542420e-01  9.5891103808512645e-01  9.4433335057681977e-01  9.2768406787226554e-01  9.0903720574526170e-01  8.8847788437835817e-01  8.6610307571566092e-01  8.4202223395789211e-01  8.1635759924865192e-01  7.8924404267560633e-01  7.6082831386882976e-01  7.3126729383210232e-01  7.0072620025618626e-01  6.6937575533383686e-01  6.3738916861135742e-01  6.0493923777247716e-01  5.7219525621576961e-01  5.3932066968209025e-01  5.0647100884006979e-01  4.7379239693533215e-01  4.4142107316379731e-01  4.0948311065264170e-01  3.7809486726310154e-01  3.4736392954702511e-01  3.1739024517702902e-01  2.8826754210974281e-01  2.6008476912674527e-01  2.3292730048298094e-01  2.0687805901834100e-01  1.8201849423500338e-01  1.5842920886342890e-01  1.3619019453822775e-01  1.1538070121189706e-01  9.6078675163761937e-02  7.8359795114032502e-02  6.2296238945338978e-02  4.7955376355796400e-02  3.5398548631293027e-02  2.4680060613039203e-02  1.5846449806094027e-02  8.9360335233560698e-03  3.9786819322723396e-03  9.9573700629660626e-04  -8.2779691481739036e-16  9.9999999999999889e-01  9.9884430056657170e-01  9.9538214958600280e-01  9.8962835419796158e-01  9.8160748792832131e-01  9.7135377422300995e-01  9.5891100995758261e-01  9.4433261662675005e-01  9.2768189976195936e-01  9.0903255703579233e-01  8.8846938360093519e-01  8.6608906905156546e-01  8.4200087755274289e-01  8.1632705244748482e-01  7.8920255964836272e-01  7.6077451037442700e-01  7.3120033054984745e-01  7.0064584352215831e-01  6.6928257872538133e-01  6.3728432004045255e-01  6.0482449805456795e-01  5.7207290578694425e-01  5.3919329615950895e-01  5.0634143832046163e-01  4.7366348679005499e-01  4.4129565646147684e-01  4.0936384353416833e-01  3.7798409667390026e-01  3.4726364875138221e-01  3.1730194713004439e-01  2.8819217426541693e-01  2.6002264533150721e-01  2.3287808902024246e-01  2.0684086273649399e-01  1.8199192984308923e-01  1.5841155848017788e-01  1.3617959286989806e-01  1.1537532165124478e-01  9.6076873854244030e-02  7.8360199858791890e-02  6.2297786215556893e-02  4.7957308919167614e-02  3.5400382557802285e-02  2.4681535862677809e-02  1.5847475482890148e-02  8.9366349634308461e-03  3.9789536206860394e-03  9.9580516696814699e-04  -1.3602580545192596e-15  1.0000000000000009e+00  9.9884441745174235e-01  9.9538261246576942e-01  9.8962936302683657e-01  9.8160915122149939e-01  9.7135600719208992e-01  9.5891340339632736e-01  9.4433429210594566e-01  9.2768136429330150e-01  9.0902758109571402e-01  8.8845695574092920e-01  8.6606544400979568e-01  8.4196177795849647e-01  8.1626799037702114e-01  7.8911929919062807e-01  7.6066346359751247e-01  7.3105909858439555e-01  7.0047343575925469e-01  6.6907981473987477e-01  6.3705367107424749e-01  6.0456992565419465e-01  5.7179968383534807e-01  5.3890761265185994e-01  5.0605004590252634e-01  4.7337341503417113e-01  4.4101378954880899e-01  4.0909668657459847e-01  3.7773737866855067e-01  3.4704209959079413e-01  3.1710905835089348e-01  2.8803000061560607e-01  2.5989167052850226e-01  2.3277724228485214e-01  2.0676768340764326e-01  1.8194285481161795e-01  1.5838230176611512e-01  1.3616560566530511e-01  1.1537221879318460e-01  9.6080761579961066e-02  7.8367875594011094e-02  6.2306821440054845e-02  4.7966030807433530e-02  3.5407787134833772e-02  2.4687163280274482e-02  1.5851274899087740e-02  8.9388335976011979e-03  3.9799428078671284e-03  9.9605337917391275e-04  -9.4989662154690075e-16  9.9999999999999978e-01  9.9884474067587092e-01  9.9538389073629607e-01  9.8963217031433859e-01  9.8161392181487428e-01  9.7136290687553695e-01  9.5892216643851103e-01  9.4434404451504483e-01  9.2769045500489378e-01  9.0903344088635141e-01  8.8845601356473602e-01  8.6605316791337017e-01  8.4193285343008617e-01  8.1621665889841122e-01  7.8903998063876735e-01  7.6055130384570613e-01  7.3091060131182028e-01  7.0028698270625600e-01  6.6885590077432400e-01  6.3679505526627778e-01  6.0428139107928458e-01  5.7148778429540037e-01  5.3858016224143823e-01  5.0571573570996187e-01  4.7304127291410314e-01  4.4069267238105991e-01  4.0879490444522937e-01  3.7746218018247618e-01  3.4679925255453897e-01  3.1690262570940486e-01  2.8786207182073775e-01  2.5976224038809465e-01  2.3268432149950036e-01  2.0670755174983030e-01  1.8191050819184021e-01  1.5837200064602600e-01  1.3617144982155935e-01  1.1538865439579331e-01  9.6102955275591304e-02  7.8391934188466239e-02  6.2329869374261548e-02  4.7986172770760838e-02  3.5423996073794387e-02  2.4699129270673737e-02  1.5859238239348206e-02  8.9434176458337393e-03  3.9820050720967837e-03  9.9657165584127682e-04  -1.7798681418874915e-15  9.9999999999999989e-01  9.9884537965176257e-01  9.9538641315621657e-01  9.8963771464435923e-01  9.8162342266473590e-01  9.7137696287233832e-01  9.5894087686575047e-01  9.4436683494644780e-01  9.2771591025576294e-01  9.0905917196516417e-01  8.8847857438993871e-01  8.6606807227498384e-01  8.4193472711211259e-01  8.1619957144454280e-01  7.8899794906779597e-01  7.6047896980448770e-01  7.3080391551700163e-01  7.0014379368232338e-01  6.6867613757798050e-01  6.3658117397039082e-01  6.0403796237969076e-01  5.7122130089618184e-01  5.3829862864951061e-01  5.0542798697018354e-01  4.7275667543797978e-01  4.4042035540182617e-01  4.0854324479957849e-01  3.7723844001507051e-01  3.4660900576131909e-01  3.1674947159301953e-01  2.8774743106082717e-01  2.5968531051363103e-01  2.3264224094900346e-01  2.0669576303041723e-01  1.8192327447894471e-01  1.5840302060521133e-01  1.3621444825796727e-01  1.1543786951606305e-01  9.6153482391294801e-02  7.8439918916809237e-02  6.2372566398940808e-02  4.8021901259008799e-02  3.5452028164390546e-02  2.4719542925709884e-02  1.5872744421128942e-02  8.9511852128663378e-03  3.9855052521415874e-03  9.9745307260528044e-04  -6.6613584292965021e-16  9.9999999999999978e-01  9.9884642934734047e-01  9.9539055211658800e-01  9.8964680827054785e-01  9.8163904681778369e-01  9.7140028035709847e-01  9.5897250327830186e-01  9.4440669332526761e-01  9.2776309331313711e-01  9.0911183081835456e-01  8.8853384825800386e-01  8.6612207789061491e-01  8.4198268451838210e-01  8.1623604453373100e-01  7.8901729328447778e-01  7.6047594597737722e-01  7.3077437819914304e-01  7.0008520855394374e-01  6.6858788478206488e-01  6.3646489905223014e-01  6.0389736841152020e-01  5.7106188956137638e-01  5.3812729028270179e-01  5.0525259004530454e-01  4.7258543252683766e-01  4.4026132373676397e-01  4.0840365900237496e-01  3.7712438644054469e-01  3.4652491508611555e-01  3.1669779214787586e-01  2.8772849635530806e-01  2.5969738790838237e-01  2.3268175445451650e-01  2.0675769687158677e-01  1.8200171986347224e-01  1.5849176439173487e-01  1.3630750961836122e-01  1.1552991685510025e-01  9.6240109721511438e-02  7.8517791008644533e-02  6.2439453252321392e-02  4.8076637141382064e-02  3.5494410696057792e-02  2.4750201412509366e-02  1.5892984907981911e-02  8.9628324178974185e-03  3.9907625950040644e-03  9.9877917650755487e-04  -8.0847380307116567e-16  9.9999999999999911e-01  9.9884796705507561e-01  9.9539661124990653e-01  9.8966011419881095e-01  9.8166193037519034e-01  9.7143456820732133e-01  9.5901942639006010e-01  9.4446679997143512e-01  9.2783616445378314e-01  9.0919679842906709e-01  8.8862873937385245e-01  8.6622399366007996e-01  8.4208784204419129e-01  8.1633999610095198e-01  7.8911522815382296e-01  7.6056319305121445e-01  7.3084697878770999e-01  7.0014044174454526e-01  6.6862461545052709e-01  6.3648365951851560e-01  6.0390049767209220e-01  5.7105321065535430e-01  5.3811188929939158e-01  5.0523630950631970e-01  4.7257435736639120e-01  4.4026138812894366e-01  4.0842009394649154e-01  3.7716124818919072e-01  3.4658481061146179e-01  3.1678156032719496e-01  2.8783516396948694e-01  2.5982425331947101e-01  2.3282465467066774e-01  2.0691144367697040e-01  1.8216061911382725e-01  1.5865013033377834e-01  1.3646010253126048e-01  1.1567226112693649e-01  9.6368680341175753e-02  7.8630096731514998e-02  6.2534046766159354e-02  4.8153071791882773e-02  3.5553160919576804e-02  2.4792555337887334e-02  1.5920924764795841e-02  8.9789232704291719e-03  3.9980354694205801e-03  1.0006157244395247e-03  -8.4709839160164717e-16  1.0000000000000011e+00  9.9885005121761961e-01  9.9540482192924262e-01  9.8967814394322973e-01  9.8169295761695929e-01  9.7148116204622637e-01  9.5908350617861537e-01  9.4454961872735987e-01  9.2793829407316231e-01  9.0931810207826358e-01  8.8876832630474267e-01  8.6638018181855270e-01  8.4225814892451056e-01  8.1652122669860328e-01  7.8930370009340034e-01  7.6075509230477989e-01  7.3103880044348535e-01  7.0032943090193200e-01  6.6880903111988432e-01  6.3666286571863817e-01  6.0407513249599443e-01  5.7122499169278218e-01  5.3828344917442605e-01  5.0541081190672976e-01  4.7275518626396001e-01  4.4045166018179865e-01  4.0862234739133635e-01  3.7737702796101757e-01  3.4681442412979768e-01  3.1702397839459817e-01  2.8808792893557039e-01  2.6008365138820022e-01  2.3308602248208765e-01  2.0716959944645502e-01  1.8241032967773521e-01  1.5888652471249784e-01  1.3667898235522058e-01  1.1587028674897872e-01  9.6543459514972410e-02  7.8780198594753978e-02  6.2658982020655257e-02  4.8253246506163215e-02  3.5629819823008793e-02  2.4847711251064570e-02  1.5957299769852804e-02  8.9998836451512486e-03  4.0075177359174142e-03  1.0030119646077561e-03  -1.4290386893241993e-15  1.0000000000000004e+00  9.9885272134911718e-01  9.9541534279849586e-01  9.8970125480352289e-01  9.8173276219717254e-01  9.7154104319381163e-01  9.5916612815949853e-01  9.4465698870573267e-01  9.2807183198249943e-01  9.0947867494552259e-01  8.8895623440435934e-01  8.6659509401179047e-01  8.4249903222906719e-01  8.1678631171910132e-01  7.8959059325203595e-01  7.6106099401259342e-01  7.3136081979608192e-01  7.0066484088257175e-01  6.6915548046555717e-01  6.3701855529992790e-01  6.0443880060122668e-01  5.7159597825013930e-01  5.3866154181880888e-01  5.0579611457121854e-01  4.7314790779653365e-01  4.4085178626049970e-01  4.0902932866903285e-01  3.7778958555286335e-01  3.4723037059443507e-01  3.1744012651471260e-01  2.8850018569893909e-01  2.6048723099065191e-01  2.3347579717247618e-01  2.0754051060255654e-01  1.8275776784054731e-01  1.5920661544209250e-01  1.3696875114024781e-01  1.1612770653625129e-01  9.6767425212317931e-02  7.8970473758850662e-02  6.2816141266807568e-02  4.8378626547244820e-02  3.5725489140343999e-02  2.4916452116814428e-02  1.6002618169635233e-02  9.0260036324995088e-03  4.0193388683585855e-03  1.0060003060260903e-03  -1.5371053243540697e-15  1.0000000000000004e+00  9.9885599820840809e-01  9.9542826020071218e-01  9.8972965131341961e-01  9.8178172787318141e-01  9.7161483687232364e-01  9.5926821761686254e-01  9.4479017698703815e-01  9.2823841392048922e-01  9.0968054389308961e-01  8.8919491116246185e-01  8.6687165239034158e-01  8.4281395386776792e-01  8.1713934004459543e-01  7.8998068782606679e-01  7.6148643073169342e-01  7.3181935614820459e-01  7.0115382283370276e-01  6.6967200198529142e-01  6.3755953700086465e-01  6.0500108495936877e-01  5.7217632402818563e-01  5.3925678910518138e-01  5.0640315682188997e-01  4.7376357502938221e-01  4.4147271544335082e-01  4.0965176928442826e-01  3.7840922403485683e-01  3.4784227430319015e-01  3.1803880179545740e-01  2.8907977681855040e-01  2.6104183963561189e-01  2.3399986323371538e-01  2.0802916912861277e-01  1.8320712657031824e-01  1.5961389480485208e-01  1.3733229335205277e-01  1.1644687910537949e-01  9.7042491256850757e-02  7.9202457811605648e-02  6.3006737123695741e-02  4.8530145609112930e-02  3.5840855404074841e-02  2.4999252994699461e-02  1.6057180098300334e-02  9.0574486541969874e-03  4.0335715149654788e-03  1.0095987504181300e-03  -1.3129617337718615e-15  9.9999999999999944e-01  9.9885988595457664e-01  9.9544359609461475e-01  9.8976340100951088e-01  9.8184000965644302e-01  9.7170283609999197e-01  9.5939025972756353e-01  9.4494990816409485e-01  9.2843902041536130e-01  9.0992494227061071e-01  8.8948581999927678e-01  8.6721153033335507e-01  8.4320479961072914e-01  8.1758241356636907e-01  7.9047630500014920e-01  7.6203393703068079e-01  7.3241712264176828e-01  7.0179930589971351e-01  6.7036171070783956e-01  6.3828908903997694e-01  6.0576537187672930e-01  5.7296963759316832e-01  5.4007301856265577e-01  5.0723599572131350e-01  4.7460649330122701e-01  4.4231894690778029e-01  4.1049421578074624e-01  3.7924039872308463e-01  3.4865436037740410e-01  3.1882387049796640e-01  2.8983014722591399e-01  2.6175050188730858e-01  2.3466086495133961e-01  2.0863789000453367e-01  1.8376042295988712e-01  1.6011010474531032e-01  1.3777109008030744e-01  1.1682904421907910e-01  9.7369670092316021e-02  7.9476958953790547e-02  6.3231387095744884e-02  4.8708248541670551e-02  3.5976218551056788e-02  2.5096299082377267e-02  1.6121088525389838e-02  9.0942673001870016e-03  4.0502337503065785e-03  1.0138112942826847e-03  -7.4858964089443334e-16  9.9999999999999989e-01  9.9886437451153920e-01  9.9546131589545894e-01  9.8980244562218800e-01  9.8190754829141658e-01  9.7180502294857407e-01  9.5953232653290110e-01  9.4513638546721712e-01  9.2867401075358924e-01  9.1021237293346835e-01  8.8982956113450840e-01  8.6761535475041074e-01  8.4367215058201428e-01  8.1811602565496999e-01  7.9107781496469631e-01  7.6270369050950726e-01  7.3315407727425463e-01  7.0260092833864596e-01  6.7122393651883883e-01  6.3920629568043863e-01  6.0673054485048883e-01  5.7397471426697322e-01  5.4110911385725691e-01  5.0829368878958281e-01  4.7567596672754514e-01  4.4339000454981708e-01  4.1155633788461554e-01  3.8028283890242276e-01  3.4966638761103092e-01  3.1979514307713147e-01  2.9075119398817001e-01  2.6261321511777919e-01  2.3545889306229784e-01  2.0936684542322120e-01  1.8441790090322116e-01  1.6069553406173998e-01  1.3828543945772928e-01  1.1727446733829153e-01  9.7749172796346220e-02  7.9794113862638905e-02  6.3490154378039204e-02  4.8912929264313995e-02  3.6131523069048835e-02  2.5207513507030821e-02  1.6194269241328513e-02  9.1364048607496424e-03  4.0692959223119730e-03  1.0186296865945439e-03  -6.5512137754865461e-16  1.0000000000000002e+00  9.9886944248015674e-01  9.9548134079619477e-01  9.8984662957012193e-01  9.8198411175139499e-01  9.7192111161036443e-01  9.5969411994233167e-01  9.4534934007612303e-01  9.2894317356908007e-01  9.1054266002334361e-01  8.9022595296403695e-01  8.6808284068836883e-01  8.4421550064619444e-01  8.1873934504156509e-01  7.9178399764685115e-01  7.6349402052019777e-01  7.3402801032123532e-01  7.0355591179339405e-01  6.7225529276168083e-01  6.4030722405089580e-01  6.0789228343317536e-01  5.7518696968053229e-01  5.4236042028238896e-01  5.0957166077726579e-01  4.7696750789551945e-01  4.4468148749708092e-01  4.1283380487588539e-01  3.8153230896313695e-01  3.5087429814289567e-01  3.2094889091187573e-01  2.9183967539241135e-01  2.6362731138759571e-01  2.3639183969346272e-01  2.1021441104784072e-01  1.8517831900433518e-01  1.6136922880420626e-01  1.3887459439192609e-01  1.1778254082086197e-01  9.8180466942130493e-02  8.0153431009968634e-02  6.3782573798014844e-02  4.9143749201812824e-02  3.6306368255533149e-02  2.5332555028565230e-02  1.6276464296556478e-02  9.1836969508673483e-03  4.0906784742422110e-03  1.0240328222426110e-03  -7.2545284795885619e-16  1.0000000000000002e+00  9.9887505832188606e-01  9.9550355064154716e-01  9.8989570578095920e-01  9.8206931568757017e-01  9.7205059226717305e-01  9.5987502517611956e-01  9.4558808540750250e-01  9.2924576240605894e-01  9.1091501640961292e-01  8.9067409062473901e-01  8.6861288475218879e-01  8.4483340547262464e-01  8.1945044300005854e-01  7.9259232684843994e-01  7.6440172982377008e-01  7.3503500162671775e-01  7.0465957488030462e-01  6.7345035609489290e-01  6.4158575823180930e-01  6.0924394671676774e-01  5.7659941367484691e-01  5.4381969569271105e-01  5.1106248519690423e-01  4.7847356642302030e-01  4.4618576604790827e-01  4.1431899735471095e-01  3.8298135567632663e-01  3.5227100732568478e-01  3.2227858573671386e-01  2.9308978045334888e-01  2.6478782608736146e-01  2.3745563295711447e-01  2.1117733229228042e-01  1.8603909210534125e-01  1.6212912514020358e-01  1.3953686488057651e-01  1.1835185617872025e-01  9.8662346014736363e-02  8.0553845000767677e-02  6.4107685244105775e-02  4.9399859521548649e-02  3.6500034502779298e-02  2.5470847869850991e-02  1.6367257797389779e-02  9.2358856633869002e-03  4.1142591161143086e-03  1.0299889991111557e-03  -6.8755968269366262e-16  1.0000000000000009e+00  9.9888118343144350e-01  9.9552779759605148e-01  9.8994936246879917e-01  9.8216265388722734e-01  9.7219276222062168e-01  9.6007416194818862e-01  9.4585157828530630e-01  9.2958059410657456e-01  9.1132807956780126e-01  8.9117242785369999e-01  8.6920363487096919e-01  8.4552358810014550e-01  8.2024643887689019e-01  7.9349917857696350e-01  7.6542235880982989e-01  7.3616971375093510e-01  7.0590570163049404e-01  6.7480206098972395e-01  6.4303407970592086e-01  6.1077707210934473e-01  5.7820306597657412e-01  5.4547750918540028e-01  5.1275635461550217e-01  4.8018405758687116e-01  4.4789262648600897e-01  4.1600178966709456e-01  3.8462017354390260e-01  3.5384724908743681e-01  3.2377567967153259e-01  2.9449381754259407e-01  2.6608801528579185e-01  2.3864455404938198e-01  2.1225091248486830e-01  1.8699642073155398e-01  1.6297212579023446e-01  1.4026971806718028e-01  1.1898027607806023e-01  9.9192985052250771e-02  8.0993762375354231e-02  6.4464098278456242e-02  4.9680054539573595e-02  3.6711523245164003e-02  2.5621621515469352e-02  1.6466107889979157e-02  9.2926438057947397e-03  4.1398843308074048e-03  1.0364586988039529e-03  -1.0984234043342075e-15  9.9999999999999922e-01  9.9888777268968654e-01  9.9555390652588005e-01  9.9000722669498031e-01  9.8226350956399300e-01  9.7234674445965630e-01  9.6029039787855064e-01  9.4613844411722814e-01  9.2994606518146017e-01  9.1178001662154107e-01  8.9171880584075358e-01  8.6985256331250238e-01  8.4628299833803433e-01  8.2112360580863697e-01  7.9449997699268315e-01  7.6655037385964186e-01  7.3742559313062228e-01  7.0728671818518973e-01  6.7630188164452243e-01  6.4464279428600602e-01  6.1248149101913896e-01  5.7998708014903855e-01  5.4732244362005766e-01  5.1464140344972342e-01  4.8208683380037981e-01  4.4978986776432839e-01  4.1787018452498059e-01  3.8643723980513939e-01  3.5559219454438518e-01  3.2543021162659602e-01  2.9604280245149167e-01  2.6751993239405292e-01  2.3995168968952479e-01  2.1342929102975403e-01  1.8804545053138005e-01  1.6389423719567248e-01  1.4106983055576489e-01  1.1966501894661173e-01  9.9769995939909970e-02  8.1471138146301567e-02  6.4850053313716544e-02  4.9982857226424024e-02  3.6939621518264923e-02  2.5783945496261611e-02  1.6572360793837823e-02  9.3535705153149785e-03  4.1673647407273508e-03  1.0433926636106644e-03  -1.5590478282293165e-15  1.0000000000000004e+00  9.9889477995301890e-01  9.9558169694283871e-01  9.9006890865642261e-01  9.8237122909973651e-01  9.7251157638930996e-01  9.6052244365263995e-01  9.4644706829409109e-01  9.3034022084877632e-01  9.1226853522367235e-01  8.9231056233940431e-01  8.7055651806275292e-01  8.4710790095931754e-01  8.2207745401242005e-01  7.9558930813682416e-01  7.6777930754248747e-01  7.3879503967155602e-01  7.0879388392183040e-01  6.7793997959048358e-01  6.4640106797581831e-01  6.1434548075951356e-01  5.8193894793108503e-01  5.4934134654947608e-01  5.1670401754663264e-01  4.8416806267616902e-01  4.5186371787079049e-01  4.1991074691873936e-01  3.8841970178407659e-01  3.5749380503409806e-01  3.2723112760051193e-01  2.9772676707206219e-01  2.6907473428045964e-01  2.4136930122826122e-01  2.1470575957309407e-01  1.8918048379776961e-01  1.6489068640640447e-01  1.4193320685775451e-01  1.2040271854930309e-01  1.0039052470133819e-01  8.1983522953652702e-02  6.5263469758905887e-02  5.0306526876442756e-02  3.7182938901017711e-02  2.5956752773082389e-02  1.6685277312362