<?xml version="1.0"?>
<VTKFile type="UnstructuredGrid"  version="0.1"  >
<UnstructuredGrid>
<Piece  NumberOfPoints="2834" NumberOfCells="4927">
<Points>
<DataArray  type="Float64"  NumberOfComponents="3"  format="ascii">-20 2 0  -20 0 0  -1 0 0  -0.9996988186962042 0.02454122852291233 0  -0.9987954562051724 0.04906767432741797 0  -0.9972904566786902 0.07356456359966773 0  -0.9951847266721968 0.09801714032956083 0  -0.99247953459871 0.1224106751992163 0  -0.989176509964781 0.1467304744553618 0  -0.9852776423889412 0.1709618887603012 0  -0.9807852804032304 0.1950903220161286 0  -0.9757021300385285 0.21910124015687 0  -0.970031253194544 0.2429801799032641 0  -0.9637760657954398 0.2667127574748985 0  -0.9569403357322088 0.2902846772544624 0  -0.9495281805930367 0.3136817403988914 0  -0.9415440651830207 0.3368898533922203 0  -0.9329927988347388 0.3598950365349883 0  -0.9238795325112867 0.3826834323650899 0  -0.9142097557035307 0.4052413140049899 0  -0.9039892931234433 0.427555093430282 0  -0.8932243011955152 0.4496113296546069 0  -0.8819212643483549 0.4713967368259979 0  -0.8700869911087113 0.4928981922297841 0  -0.857728610000272 0.5141027441932218 0  -0.8448535652497071 0.5349976198870972 0  -0.8314696123025453 0.5555702330196022 0  -0.8175848131515836 0.5758081914178454 0  -0.8032075314806448 0.5956993044924335 0  -0.7883464276266062 0.6152315905806269 0  -0.773010453362737 0.6343932841636455 0  -0.7572088465064846 0.6531728429537766 0  -0.7409511253549589 0.6715589548470186 0  -0.7242470829514668 0.6895405447370671 0  -0.7071067811865475 0.7071067811865476 0  -0.6895405447370669 0.7242470829514669 0  -0.6715589548470184 0.740951125354959 0  -0.6531728429537765 0.7572088465064847 0  -0.6343932841636454 0.7730104533627371 0  -0.6152315905806267 0.7883464276266063 0  -0.5956993044924334 0.8032075314806449 0  -0.5758081914178453 0.8175848131515837 0  -0.555570233019602 0.8314696123025455 0  -0.534997619887097 0.8448535652497072 0  -0.5141027441932217 0.8577286100002721 0  -0.492898192229784 0.8700869911087115 0  -0.4713967368259977 0.881921264348355 0  -0.4496113296546067 0.8932243011955152 0  -0.4275550934302819 0.9039892931234434 0  -0.4052413140049897 0.9142097557035307 0  -0.3826834323650897 0.9238795325112867 0  -0.3598950365349882 0.9329927988347388 0  -0.3368898533922199 0.9415440651830208 0  -0.3136817403988914 0.9495281805930367 0  -0.2902846772544622 0.9569403357322089 0  -0.2667127574748983 0.9637760657954398 0  -0.2429801799032639 0.970031253194544 0  -0.2191012401568697 0.9757021300385286 0  -0.1950903220161282 0.9807852804032304 0  -0.1709618887603012 0.9852776423889412 0  -0.1467304744553616 0.989176509964781 0  -0.1224106751992162 0.99247953459871 0  -0.09801714032956065 0.9951847266721969 0  -0.07356456359966733 0.9972904566786902 0  -0.04906767432741801 0.9987954562051724 0  -0.02454122852291214 0.9996988186962042 0  6.123233995736766e-17 1 0  0.02454122852291226 0.9996988186962042 0  0.04906767432741813 0.9987954562051724 0  0.07356456359966745 0.9972904566786902 0  0.09801714032956077 0.9951847266721968 0  0.1224106751992163 0.99247953459871 0  0.1467304744553617 0.989176509964781 0  0.1709618887603014 0.9852776423889412 0  0.1950903220161283 0.9807852804032304 0  0.2191012401568698 0.9757021300385286 0  0.242980179903264 0.970031253194544 0  0.2667127574748984 0.9637760657954398 0  0.2902846772544623 0.9569403357322089 0  0.3136817403988916 0.9495281805930367 0  0.3368898533922201 0.9415440651830208 0  0.3598950365349883 0.9329927988347388 0  0.3826834323650898 0.9238795325112867 0  0.4052413140049899 0.9142097557035307 0  0.4275550934302822 0.9039892931234433 0  0.4496113296546066 0.8932243011955153 0  0.4713967368259978 0.8819212643483549 0  0.4928981922297841 0.8700869911087113 0  0.5141027441932217 0.8577286100002721 0  0.5349976198870973 0.844853565249707 0  0.5555702330196023 0.8314696123025452 0  0.5758081914178453 0.8175848131515837 0  0.5956993044924335 0.8032075314806448 0  0.6152315905806268 0.7883464276266062 0  0.6343932841636455 0.773010453362737 0  0.6531728429537768 0.7572088465064845 0  0.6715589548470183 0.7409511253549591 0  0.6895405447370669 0.7242470829514669 0  0.7071067811865476 0.7071067811865475 0  0.724247082951467 0.6895405447370668 0  0.7409511253549591 0.6715589548470183 0  0.7572088465064846 0.6531728429537768 0  0.773010453362737 0.6343932841636455 0  0.7883464276266063 0.6152315905806268 0  0.8032075314806449 0.5956993044924334 0  0.8175848131515837 0.5758081914178453 0  0.8314696123025452 0.5555702330196022 0  0.8448535652497071 0.5349976198870972 0  0.8577286100002721 0.5141027441932217 0  0.8700869911087115 0.492898192229784 0  0.881921264348355 0.4713967368259976 0  0.8932243011955153 0.4496113296546065 0  0.9039892931234433 0.4275550934302821 0  0.9142097557035307 0.4052413140049899 0  0.9238795325112867 0.3826834323650898 0  0.932992798834739 0.3598950365349881 0  0.9415440651830208 0.3368898533922201 0  0.9495281805930367 0.3136817403988915 0  0.9569403357322088 0.2902846772544623 0  0.9637760657954398 0.2667127574748984 0  0.970031253194544 0.2429801799032639 0  0.9757021300385286 0.2191012401568698 0  0.9807852804032304 0.1950903220161282 0  0.9852776423889412 0.1709618887603012 0  0.989176509964781 0.1467304744553617 0  0.99247953459871 0.1224106751992162 0  0.9951847266721969 0.0980171403295606 0  0.9972904566786902 0.07356456359966743 0  0.9987954562051724 0.04906767432741801 0  0.9996988186962042 0.02454122852291229 0  1 0 0  20 0 0  20 2 0  0 2 0  -10 2 0  10 2 0  -10.5 0 0  -5 2 0  10.5 0 0  5 2 0  -15 2 0  -5.75 0 0  -2.5 2 0  15 2 0  5.75 0 0  2.5 2 0  -15.25 0 0  -3.375 0 0  15.25 0 0  3.375 0 0  -17.625 0 0  -17.5 2 0  17.5 2 0  17.625 0 0  8.125 0 0  7.5 2 0  12.875 0 0  12.5 2 0  -12.5 2 0  -12.875 0 0  -8.125 0 0  -7.5 2 0  -18.75 2 0  -18.8125 0 0  18.75 2 0  18.8125 0 0  16.4375 0 0  16.25 2 0  -16.25 2 0  -16.4375 0 0  13.75 2 0  -14.0625 0 0  -13.75 2 0  -11.6875 0 0  11.6875 0 0  -9.3125 0 0  8.75 2 0  -8.75 2 0  6.9375 0 0  6.25 2 0  -6.9375 0 0  -6.25 2 0  9.3125 0 0  11.25 2 0  -11.25 2 0  3.75 2 0  4.5625 0 0  -4.5625 0 0  -3.75 2 0  -1.25 2 0  1.25 2 0  14.0625 0 0  2.1875 0 0  -2.1875 0 0  -20 1 0  20 1 0  18.21875 0.982421875 0  -18.21875 0.982421875 0  16.875 1.0498046875 0  -17.03125 0.966796875 0  -15.84375 0.953125 0  15.625 1.0625 0  14.375 1.0732421875 0  -14.375 1.0732421875 0  1.830289387965117 1.052284088108649 0  -1.830289387965117 1.052284088108649 0  -3.125 1.08203125 0  -13.28477656888586 1.012129001112436 0  13.125 1.08203125 0  3.125 1.08203125 0  -4.375 1.0888671875 0  11.875 1.0888671875 0  -11.875 1.0888671875 0  4.203765290519877 1.0193030867737 0  -5.625 1.09375 0  5.625 1.09375 0  10.625 1.09375 0  -10.80634835916782 1.025744365312066 0  9.375 1.0966796875 0  -6.875 1.0966796875 0  -9.375 1.0966796875 0  6.684990875912408 1.03136405109489 0  -8.322099415573495 1.036062682633283 0  8.125 1.09765625 0  19.11075969939671 0.8508947319664032 0  -19.11075969939671 0.8508947319664032 0  -7.53125 0 0  8.71875 0 0  7.423362102206937 0.6655467048188293 0  9.90625 0 0  -6.34375 0 0  -10.07209987056368 0.6864155791813131 0  -5.15625 0 0  4.932893941568688 0.70313517104756 0  11.09375 0 0  -3.96875 0 0  12.28125 0 0  -12.56167362378033 0.7158719711052053 0  -15.12789358749343 1.239622257084254 0  19.375 2 0  -19.375 2 0  -7.586458743762512 0.7777256637040587 0  -8.876841588719831 0.5749490497356908 0  -2.78125 0 0  13.46875 0 0  2.486351124110562 0.6882204272146759 0  -2.484375 0.6875496078884429 0  13.765625 0.6685592193186988 0  6.127605163798639 0.5971727330055587 0  0.625 2 0  -0.625 2 0  -1.146535794159178 1.28513409566998 0  1.146535794159178 1.285134095669981 0  14.65625 0 0  14.953125 0.6512707752786624 0  -14.87682753143027 0.5890664696931456 0  12.578125 0.6384885491877257 0  -3.671875 0.6384885491877257 0  -15.625 2 0  -11.36675239212577 0.6158089665857418 0  15.00271470412651 1.324726469417674 0  17.53235848397354 0.7266244978817956 0  11.390625 0.6116981677410314 0  -4.859375 0.6116981677410314 0  15.84375 0 0  16.140625 0.6148897058823529 0  7.497593266890831 1.330710907262048 0  13.76254792112057 1.334335181755445 0  -10.20969602084016 1.352738855957021 0  17.03125 0 0  3.639986821556412 0.6311208834101457 0  -2.422032960990368 1.344610008595471 0  -1.875 2 0  2.42168763602468 1.344854035092462 0  1.875 2 0  -6.046875 0.5879464285714285 0  10.203125 0.5879464285714285 0  4.785027294216357 1.360955117010924 0  -16.43327865604348 1.32661481258014 0  -16.44139997701004 0.663326532427168 0  -12.71719161438206 1.366886164755866 0  9.015625 0.567039754702805 0  -13.85227446991684 0.6433291643838606 0  17.68435132148515 1.367585767263021 0  -8.125 2 0  -7.779164034427432 1.405551895778211 0  6.875 2 0  -16.875 2 0  16.25211206745888 1.264109755085799 0  -3.748868614850469 1.292331074664245 0  12.50113138514953 1.292331074664245 0  -4.999425840599162 1.238293400364507 0  11.25057415940084 1.238293400364507 0  10.00021284174179 1.186027320246887 0  -6.249787158258211 1.186027320246887 0  8.750028772491092 1.133996757348608 0  8.125 2 0  -9.375 2 0  -6.875 2 0  9.375 2 0  10.625 2 0  5.625 2 0  -5.625 2 0  -11.875 2 0  11.875 2 0  -4.375 2 0  3.125 2 0  13.125 2 0  -14.375 2 0  14.375 2 0  15.625 2 0  -18.125 2 0  16.875 2 0  -3.125 2 0  -10.625 2 0  4.375 2 0  -13.125 2 0  18.125 2 0  -17.62042339570457 1.322431301452557 0  -17.64048254773117 0.661277151197267 0  -1.59375 0 0  1.59375 0 0  -19.40625 0 0  19.40625 0 0  20 0.5 0  19.0625 1.466926268772181 0  -18.7305243036722 1.362703047674974 0  -5.451064633443578 0.5209722999527524 0  10.79893536655642 0.5209722999527524 0  9.610417111950763 0.5183010867631196 0  -13.46875 0 0  3.96875 0 0  -11.09375 0 0  6.34375 0 0  2.78125 0 0  -8.71875 0 0  -12.28125 0 0  5.15625 0 0  -9.90625 0 0  7.53125 0 0  -15.84375 0 0  -17.03125 0 0  -18.21875 0 0  18.21875 0 0  -14.65625 0 0  20 1.5 0  -19.48071156660626 1.370757229128913 0  -20 0.5 0  -4.24552725411087 0.5169543671041
[...]
<PointData  Scalars="f_4099932"> 
<DataArray  type="Float64"  Name="f_4099932"  format="ascii">9.9839123236864324e-01  1.0010163961216789e+00  -7.8304751792772703e-05  -4.6237191149642971e-04  -1.7485826954137559e-04  -9.6709685794412034e-05  -2.1708601060913969e-04  -1.2703251933746099e-04  -1.8118428807719486e-04  3.2055927216740315e-05  -3.1060768131826669e-04  -4.0544567077936743e-04  -1.9782663146819808e-04  -6.0163542883424426e-05  -7.8792350286932571e-05  -8.5181710636476188e-05  -6.4872303115719670e-05  -1.4516586696206062e-05  -2.1122535865018457e-05  -1.8163367193546594e-05  -3.0095676000003627e-06  -1.0314426198099677e-05  -1.0726367149431956e-05  -1.5456867049477235e-05  -3.9157417838311285e-05  1.3776789292110071e-05  7.9735523193514210e-06  5.3596892041295511e-06  8.2196678855110780e-05  1.5938316113438572e-05  2.1997751093324702e-05  9.6914029310695473e-05  2.0647052209566098e-05  2.8310618312333471e-05  5.6233249562702062e-05  6.8387962939581718e-05  1.0977270712639488e-04  1.4164423025123769e-04  4.6578487597748060e-05  5.2680277410251329e-05  1.7389337997942639e-04  8.0282430290645347e-05  3.4553619486474623e-05  1.1269581322814780e-04  1.6060341195746965e-04  1.1211803543652824e-04  5.6971748893714959e-03  8.6645049629454065e-05  6.2558928922535402e-05  9.9911332020160442e-05  9.8721478684110354e-05  1.6758184228667452e-04  6.2750335812237806e-05  7.5960319301655020e-05  1.3960583101945681e-04  1.8193528338928387e-04  3.7088513855201415e-04  2.9917740631042961e-04  2.4699176820286358e-04  2.1439526477155866e-04  2.3689618561328183e-04  1.1522489336479240e-04  1.0948329451986837e-04  1.6632101085144519e-04  9.7799484928344743e-05  6.7237979487556811e-05  1.5632544228596997e-04  1.5319728476430260e-04  2.5158518764479074e-04  1.4457834692878667e-04  1.0965774848657679e-04  3.2645478938686268e-04  3.6238474564579543e-04  2.0770417957117172e-04  1.6857683470380288e-04  1.4455122123228028e-04  1.3129448687595623e-04  1.0725429060561103e-04  8.4575405074076449e-03  1.4035163881556662e-04  2.0468183885507434e-04  5.6150793357062082e-05  6.5988432337516813e-05  3.1062450497246631e-04  1.6913944180725347e-04  1.2815342769603776e-04  1.8136059058687803e-04  2.0017078116883755e-04  3.5966577082975789e-04  4.0531979841055838e-04  1.7692541621040442e-04  1.4007967861680095e-04  1.8364434566991316e-04  1.1716918737448943e-04  7.2045368070927461e-05  8.0654126053747061e-05  1.0715070054527339e-04  1.3194039306193615e-04  6.8936408828506793e-05  8.5043057276759255e-05  1.8208564388437536e-04  6.8710223798057869e-05  -2.3477986292725547e-06  1.0357760469972971e-05  5.1122184855583446e-05  1.8987554530908649e-05  1.4571402698391685e-05  -3.3254990505454536e-06  -5.4986515306729860e-07  7.4962784353867226e-06  -2.3551039213487362e-05  -1.1665377837152182e-06  -1.7842143110450461e-05  -2.5810802986701286e-05  1.7207601199878634e-05  -5.8983931938758512e-05  -4.3030867570780685e-05  6.0567726330925370e-06  -3.2964204180972251e-05  -4.0155852651688720e-05  -2.0722042070031609e-04  -3.5471193379411572e-04  -9.2816541156528308e-05  -6.2831667227565295e-05  -1.6447580125244387e-04  -1.9330909180759588e-04  -1.5206001172543134e-04  -1.5017413742205853e-04  -1.0466578163062902e-04  -4.8394672764676117e-04  -8.0142437080167584e-05  9.9999175122562711e-01  9.9999997729331813e-01  1.0415990509913688e+00  1.0000000543777616e+00  1.0000004007562502e+00  1.0000007284963868e+00  9.9991037928860105e-01  9.9999144071181822e-01  1.0000062527005851e+00  9.9999982014318112e-01  9.9962486754174495e-01  1.0026479309550589e+00  9.9999930063942555e-01  9.9966205111822992e-01  1.0076595770667125e+00  9.9993651300571751e-01  9.5863310408443458e-01  9.9999147186426007e-01  9.5909152232748085e-01  9.9501564618284399e-01  1.0001119208466669e+00  9.9999996877103636e-01  9.9999154258929301e-01  9.9999050740135598e-01  1.0000004070570017e+00  9.9999137455528164e-01  1.0000006446922782e+00  1.0000002188271093e+00  1.0000006224607811e+00  9.9999804423895988e-01  1.0000000703835019e+00  1.0014687895710981e+00  9.8024529502102664e-01  9.9999995132842279e-01  9.9999159965791062e-01  9.9999152918964029e-01  9.9999988529684558e-01  1.0000048710766509e+00  9.9932884398245225e-01  9.9999986876485947e-01  9.9999630553884999e-01  9.9999890913777389e-01  1.0000008784244268e+00  9.9999144364456327e-01  1.0000004554296256e+00  1.0000001320828606e+00  9.9999989915508580e-01  9.9996868957713825e-01  9.9999471284875074e-01  9.9997019977941404e-01  9.9999837050686846e-01  9.9999147490925300e-01  9.9999986464082169e-01  1.0000001873114135e+00  1.0001958242413294e+00  9.9524682972025547e-01  9.9571649647580351e-01  9.9929580691378839e-01  1.0112573997395320e+00  1.0201323236574642e+00  9.9999146163064534e-01  7.0456104258298391e-01  7.0967678053650962e-01  1.0003881767804998e+00  9.9999336360311375e-01  9.9999347720214193e-01  1.0019922799701273e+00  9.9999375683763281e-01  1.0005125081021549e+00  1.0000668782244237e+00  9.9999386395894563e-01  9.9999384779952116e-01  1.0000039060345576e+00  1.1700034236460775e+00  1.1741283863059302e+00  1.0297381347093388e+00  9.9999998638729171e-01  9.9999386775052568e-01  1.0275173236424520e+00  1.0029533410873985e+00  9.9999395232840127e-01  9.9999957895443625e-01  1.0033416150751220e+00  1.0002334503454293e+00  1.0002055262266405e+00  9.9999398899544478e-01  9.9999964480774484e-01  9.9999395726059725e-01  1.0000157533949174e+00  9.9999973876307180e-01  1.0000118220244740e+00  1.0000006417182181e+00  9.9999428421697689e-01  9.9999297525241515e-01  9.9222825734230735e-01  9.9999105857321280e-01  9.9999133478356494e-01  9.9999320417624538e-01  9.9999149045341318e-01  9.9989284346590868e-01  1.0000001931971374e+00  9.9868792215966617e-01  1.0000640328209762e+00  9.9999142730293167e-01  9.8614100558860418e-01  9.9999142409672781e-01  1.0000000078589812e+00  1.0000248354229540e+00  9.9999994809341175e-01  1.0101568941783532e+00  1.0000017091675770e+00  1.0000002153946377e+00  8.8388764833514410e-01  9.9999139405439796e-01  9.7231586136005976e-01  9.7013690125295726e-01  9.9999243071021493e-01  9.9998208811966860e-01  1.0383924228145365e+00  1.0390892985456064e+00  1.7138782066947784e+00  1.6792054414362083e+00  9.9999148608126276e-01  9.9999237599239910e-01  9.9999508369600865e-01  9.9999234980457907e-01  9.9684087378520203e-01  9.9999876206942850e-01  1.0000001700612988e+00  9.9999518641680396e-01  9.9999264214720407e-01  9.9999218382411215e-01  9.9974213041554383e-01  9.9999149503522466e-01  9.9999235061181757e-01  9.9999691122321166e-01  9.9999519462209530e-01  9.9999964652344997e-01  9.9999151379383522e-01  9.9575463864025526e-01  1.1246753696053102e+00  1.0052143266451297e+00  1.1209937175858788e+00  1.0061312739403856e+00  9.9997238251303500e-01  9.9999221215000245e-01  1.0013674965352521e+00  1.0003802424896633e+00  9.9991230884799565e-01  9.9999948134156535e-01  9.9999217556751174e-01  1.0000002422148888e+00  9.9999529371941398e-01  9.9999995966714550e-01  1.0000017562308443e+00  1.0000024812221107e+00  1.0000514737174333e+00  9.9999480089343395e-01  1.0107509940248045e+00  9.9999471674607432e-01  1.0009009978085366e+00  9.9999450813319224e-01  9.9999434098650108e-01  1.0000684408551386e+00  9.9999405822512444e-01  9.9999961713873320e-01  1.0000000270071709e+00  1.0000002413878990e+00  9.9999991254099541e-01  9.9999957429671893e-01  1.0000014943749227e+00  9.9998903032202291e-01  9.9999995403526654e-01  9.9999857218972199e-01  9.9999458526671792e-01  1.0003732861070818e+00  1.0000001349050183e+00  1.0000006312097376e+00  9.9999983382092095e-01  1.0000004206380531e+00  1.0011249803098243e+00  1.0000001938332919e+00  1.0001389585501304e+00  9.9999953441377931e-01  9.9997576529431154e-01  1.0000009530101304e+00  9.9999995134158148e-01  1.0031626316740445e+00  9.9879290282253341e-01  3.5330256328660264e-01  3.5659375110857333e-01  9.7731928864691042e-01  9.9999168310517972e-01  9.9999215358591831e-01  9.9999579183351839e-01  1.0138166186609165e+00  9.9978127551412743e-01  9.9999196817709501e-01  9.9999206833058496e-01  9.9999970826625517e-01  9.8560301058421873e-01  1.0000008302334538e+00  9.9990943377568953e-01  8.8158376501840263e-01  9.9999984072911019e-01  1.0000008858695564e+00  9.9868724966575662e-01  1.0000006520066662e+00  9.9998637513235833e-01  9.9977610808132211e-01  9.9797567628418771e-01  9.8852184650402330e-01  9.9999151754759052e-01  9.9998345379234133e-01  9.9999597348186653e-01  1.0142140471362775e+00  1.0006611842058211e+00  9.9726707304994977e-01  9.9999201999109144e-01  1.0000003494099814e+00  9.8995993848107189e-01  9.9999611909522135e-01  9.9999226468560665e-01  9.9999205368188371e-01  9.9999203465501441e-01  9.6933741602258150e-01  9.7094886119147517e-01  6.3173732923992210e-01  6.6064206495751288e-01  9.9999203252041358e-01  9.9995273904656468e-01  1.0000015063872640e+00  9.9999201257141712e-01  1.0180540523688197e+00  2.6986933725849447e+00  2.7402681245267879e+00  9.9999852728347427e-01  9.9999951879033699e-01  1.0003304205939429e+00  9.9985449842927421e-01  1.0000693480759464e+00  1.0000054334404307e+00  9.9998596027602948e-01  9.9999951409709986e-01  1.0000002976265439e+00  9.9999966560327591e-01  9.9999213298223733e-01  1.0000002353737498e+00  9.9999930364152978e-01  9.9641901320107518e-01  1.0069624299375703e+00  1.0000003970807489e+00  1.0000002820627318e+00  1.0000065284853654e+00  1.0001163405951299e+00  9.9999668629545790e-01  9.9999652795275018e-01  9.9997873986359209e-01  1.0000124043111132e+00  9.9999978253585275e-01  9.9999986839732902e-01  9.9999419473003648e-01  1.0000023988179616e+00  1.0013188235592783e+00  9.9999629000332868e-01  9.9999660404224666e-01  1.0000203686070817e+00  1.0000767533470862e+00  9.9999615329957858e-01  9.9999800956200335e-01  1.0094795992348462e+00  1.4570927084637482e+00  1.4543644650922991e+00  7.9820516335356739e-01  9.9999270024727460e-01  8.4729182832292727e-01  9.9699120078184134e-01  9.9999207739991969e-01  1.0000000216884866e+00  9.9999696973685759e-01  1.0002769668730069e+00  9.9999271930523115e-01  1.0010387109925887e+00  9.9999774525589258e-01  9.9999646247409490e-01  1.0000576033677275e+00  9.9423194968970097e-01  9.9999663443972797e-01  9.9999686662374043e-01  9.9927610170980852e-01  1.0560360558703967e+00  1.0511755536335321e+00  9.9999959432309249e-01  9.9999216351698395e-01  9.8113831272265617e-01  9.9999400855126486e-01  9.9999538936942911e-01  1.0037090896790897e+00  1.0134841035625533e+00  9.9999662792972610e-01  1.0108618698331251e+00  9.9999584309929157e-01  9.9999659738018654e-01  1.0000012236838702e+00  9.9999683347970159e-01  9.9999637097129013e-01  9.9988922468795038e-01  9.9999956224287301e-01  1.0000370708325848e+00  1.0289398556514506e+00  9.9999931646645279e-01  1.2538179199855302e+00  1.2465311189144590e+00  1.9527795697933430e+00  1.9421735733880066e+00  9.9999179959990925e-01  1.0005778647654335e+00  9.9999196357122799e-01  9.8041703738887942e-01  9.9999967426026237e-01  1.0000214157998479e+00  9.9999409560913843e-01  9.9770848083558072e-01  9.9256609415223040e-01  1.9985710889164818e+00  1.9677384782666525e+00  9.9999297979254465e-01  9.9999253307273195e-01  1.0003282436104237e+00  9.9999306456971526e-01  1.0003784830532605e+00  9.9999979080894952e-01  1.0040295929445042e+00  9.9999321736555558e-01  9.9999970247461190e-01  9.9998547134639137e-01  1.0008581086315824e+00  1.0032833608523926e+00  9.9999679968248489e-01  1.0000066358367898e+00  1.0000007217525877e+00  9.9999979588760290e-01  1.0000007351099931e+00  1.0000004962275162e+00  1.0005255816369460e+00  9.9999507154253231e-01  1.0080447389410114e+00  1.0013720229696685e+00  9.9759550616164350e-01  9.9809078337185020e-01  9.9999336003725781e-01  1.1820636329145169e+00  9.9999987429324200e-01  1.0000004533968785e+00  1.0102369552472807e+00  1.0000010958043759e+00  9.9999678996251762e-01  1.0000027189301164e+00  9.9999316286027295e-01  1.0000088854259197e+00  1.0000147209714663e+00  9.9999662610696916e-01  9.3842192319774209e-01  9.9999998694123315e-01  1.0000004945647922e+00  1.0000236629339085e+00  1.0000003136995872e+00  9.9999357751732909e-01  1.0000178121816039e+00  9.9999968132056205e-01  9.9999013367057277e-01  1.0504134097473363e+00  1.0502737620051026e+00  8.3493902526719599e-01  9.1649101151835299e-01  1.0173318456754525e+00  9.9999968977962850e-01  9.1031781130807565e-01  8.2965810949561480e-01  1.0880871255716547e+00  9.4467526802166812e-01  9.9999682760906372e-01  1.0000677609988786e+00  9.9942998742837053e-01  9.9999593672630327e-01  9.9999675129539711e-01  9.9999725304272113e-01  1.1154614616150049e+00  1.1210186031545553e+00  9.9999297353662264e-01  9.9999912735520313e-01  9.9999353121749490e-01  9.9999179324969467e-01  9.9999174788836054e-01  1.0007348485063778e+00  1.4066303289200242e+00  1.0000001171136981e+00  1.0000003132785851e+00  1.0000002989902832e+00  1.0000006121397029e+00  1.0000004125014061e+00  1.0131126470191940e+00  9.9999178110162545e-01  9.9112926482424302e-01  1.0003061308142664e+00  1.0004993549902446e+00  9.9999352531450303e-01  9.9999179031196750e-01  9.9999178017481039e-01  9.9999265223418843e-01  9.9040747797420148e-01  9.9959725186165482e-01  1.0070510187569712e+00  9.9999873943835793e-01  1.0000049937974069e+00  9.9985399036356060e-01  1.0000429142415133e+00  1.0046072027896584e+00  9.9108034401748069e-01  9.9999175703421483e-01  9.9999177483801627e-01  9.7661864393513720e-01  1.0013684830861755e+00  9.9999274419959039e-01  9.9999192006519644e-01  9.9999995625116600e-01  1.0002029435038977e+00  1.0001808411561155e+00  9.9996911311755776e-01  9.9945844873920697e-01  1.0010239679925472e+00  1.0001964428773986e+00  1.0000002476772032e+00  9.9999998199117879e-01  1.0000005752003001e+00  5.5209895359949268e-01  5.7144573866529014e-01  9.9999697424429967e-01  9.9195701925729562e-01  9.9534435149870615e-01  1.0045867108688049e+00  1.0021768243934843e+00  9.9999738788031334e-01  9.9927861792893957e-01  1.0135691559647559e+00  1.0000339865612766e+00  1.0015738277706101e+00  9.7694567122833431e-01  1.0000001447037627e+00  9.9999393916193280e-01  9.9999341612109693e-01  9.9999182298704159e-01  9.9999179664451976e-01  9.9999106648868041e-01  9.9999346405814105e-01  1.0014179138784254e+00  9.9999961815544725e-01  9.9999262121511800e-01  1.0004636255199084e+00  9.9999177121326066e-01  9.9999140950831278e-01  9.9770051061924070e-01  9.9744535138252988e-01  9.9927502410497970e-01  9.9999167582307014e-01  9.9960654780052627e-01  9.9963596632910223e-01  9.9999373750489606e-01  1.0012685074334042e+00  9.9999837038291539e-01  1.0000011949586856e+00  9.9999691488562281e-01  9.9999968145616380e-01  1.0005320282382446e+00  9.9999183631059352e-01  9.8865521431832259e-01  9.9875315099392004e-01  1.0000483018489925e+00  1.0011856942458057e+00  1.0000005611360185e+00  1.0000000488959331e+00  1.0000001661780180e+00  9.9999990077762446e-01  9.9999254392180581e-01  9.9999171088207872e-01  9.9999143958608516e-01  9.9999701877065983e-01  9.9999986644126371e-01  1.0000671687967326e+00  1.0332256816251619e+00  9.9999099501213129e-01  9.9999480171365007e-01  9.9999148544369942e-01  9.9999272049259269e-01  1.1522362080050186e+00  1.0000008604429405e+00  9.9999460601898671e-01  9.9999370460262771e-01  9.9999750966242784e-01  9.9999427575708544e-01  9.9999259981223654e-01  9.9999352135932851e-01  1.0000415866710741e+00  1.0000971851307079e+00  9.9999171963581468e-01  9.9999144066044721e-01  9.9980760432186577e-01  9.9977898578934776e-01  9.9999179454051690e-01  9.9994101711885652e-01  1.0000018251508391e+00  1.0000010751908917e+00  1.0000026099637176e+00  9.9999252735843236e-01  9.9999145240709630e-01  9.9999275719717884e-01  9.9999711556021453e-01  9.9407753922264697e-01  9.9999135687244889e-01  9.7486229910731947e-01  1.0000003890046456e+00  2.4743222027731271e+00  1.0000323656661447e+00  9.9996655324802375e-01  1.0000001856818501e+00  1.0292046384984641e+00  9.9999573412917875e-01  9.9999301784717032e-01  1.2542717561919309e-01  1.2802769674293576e-01  9.9999499666543734e-01  9.9999449808701124e-01  1.0004692097865788e+00  1.0055431183786199e+00  9.9999477988036412e-01  9.9999263959046492e-01  9.9999341112683193e-01  9.9999177322472754e-01  1.0690091384193146e+00  1.0001970724455467e+00  1.0080886890613354e+00  2.7138332052561291e+00  1.0795500588042912e+00  9.9366333468637258e-01  9.9994469679289399e-01  5.5557364923629604e-01  5.5586812330689594e-01  9.9999965552690273e-01  1.0000008489487997e+00  1.0000000052441314e+00  2.4040121343209075e+00  2.3115656041627943e+00  9.9999478345106985e-01  1.0000040445865908e+00  9.9999834127360354e-01  9.9999056475973791e-01  9.9999604699669720e-01  1.0002469052542786e+00  9.9999474496824581e-01  1.7045412296755389e+00  1.6372281367071573e+00  1.0269192188461440e+00  9.9999249637157939e-01  1.0539412490804498e+00  1.0000002482722310e+00  9.9999140308870726e-01  9.9999305853675013e-01  1.0000092412816906e+00  9.9999566005194895e-01  9.9999963384442303e-01  9.9999557939416162e-01  9.9999868018735172e-01  9.9999140499329864e-01  9.9999728673724952e-01  1.0000002705682167e+00  1.0018189555887180e+00  1.0000209318154887e+00  1.0219073568200812e+00  1.0193128976218020e+00  1.0029225811039282e+00  1.0000008383677765e+00  9.9999992303650043e-01  9.9999980484625195e-01  1.0010019302683666e+00  9.9988684614702061e-01  9.9999958868917438e-01  1.0009051176274455e+00  1.0038235244497840e+00  9.9999920991760216e-01  1.0000011866374829e+00  1.0000329076452761e+00  9.9997797970957403e-01  1.0000005265932286e+00  1.0083121191558770e+00  1.0092597283688256e+00  9.9999954874087194e-01  1.0000046197873413e+00  9.9999841042026349e-01  9.9999992305883090e-01  9.9999966252051053e-01  9.9999995050683954e-01  9.9999985304609107e-01  9.9999502218517156e-01  9.9999928405005833e-01  9.9999948353671231e-01  9.9999998413859281e-01  9.9999989390560984e-01  9.9999952882510790e-01  1.0001929351289074e+00  9.9998770605671994e-01  9.9996477411422890e-01  9.9999942285154975e-01  1.0000000551000521e+00  1.0000001890208738e+00  9.9947412928079904e-01  9.9999967026264303e-01  9.9999996239154121e-01  9.9999996381094158e-01  1.0703384553447579e+00  9.9999993324768477e-01  9.9886624210494879e-01  9.9922541807528076e-01  9.9999542136584330e-01  1.0000007633729289e+00  1.0000001255362168e+00  9.9999150617589505e-01  1.0656376141205248e+00  1.4063060218929653e+00  9.9967955920528484e-01  9.2823824532282395e-01  9.9930543546629902e-01  9.9999410681490963e-01  9.9999759994008663e-01  9.9999737845860193e-01  1.0000073247087735e+00  9.9532227197110990e-01  1.0020382147331646e+00  9.9999529381078267e-01  9.9993477542706932e-01  9.9999189758554285e-01  9.9999129383575014e-01  2.5238308387118591e-01  1.0000025139595348e+00  9.9999472714009507e-01  2.3798565646817121e-01  4.4674672967129542e-01  9.9999478201598668e-01  1.3917677706376872e+00  9.9999138136661470e-01  9.9163190436071580e-01  9.9998118932494318e-01  1.0000000999485810e+00  1.0000025011198621e+00  1.0017225746728207e+00  9.9999484263194560e-01  1.0601032946536397e+00  9.9999243683835037e-01  9.9999779809528933e-01  9.9999135363486458e-01  9.9922214793774200e-01  8.1947972202614361e-01  9.9998080426615921e-01  9.9999145150395896e-01  1.0000046394142101e+00  1.0000000425259512e+00  1.0000004149402377e+00  9.9999301613905489e-01  1.0000034429979239e+00  9.8461573601590968e-01  9.9999157080988743e-01  9.7600283222139506e-01  1.0000002501350567e+00  8.1104066506825601e-01  9.9999920725677416e-01  9.9682484411683603e-01  9.7739346292792240e-01  9.9999165836529824e-01  9.9999155091739711e-01  9.9998172124815954e-01  9.9994172773970036e-01  1.0000008537305831e+00  9.9151390196542821e-01  1.0000002846857126e+00  9.9999142560655385e-01  9.9988605851380985e-01  9.9999141878641007e-01  9.2694058683424341e-01  9.9999147533797805e-01  1.0000009301813055e+00  9.9980221201566843e-01  9.9998925306904718e-01  9.9999836887789717e-01  1.0316294002811111e+00  1.0001993087795604e+00  9.6509364409945964e-01  1.0001435597629893e+00  9.57956155800