<?xml version="1.0"?>
<VTKFile type="UnstructuredGrid"  version="0.1"  >
<UnstructuredGrid>
<Piece  NumberOfPoints="3914" NumberOfCells="6504">
<Points>
<DataArray  type="Float64"  NumberOfComponents="3"  format="ascii">1.25 0 0  1.249623523370255 0.03067653565364036 0  1.248494320256466 0.06133459290927252 0  1.246613070848363 0.09195570449958429 0  1.243980908340246 0.1225214254119508 0  1.240599418248387 0.1530133439990203 0  1.236470637455976 0.1834130930692022 0  1.231597052986177 0.2137023609503765 0  1.225981600504038 0.2438629025201603 0  1.219627662548161 0.2738765501960873 0  1.21253906649318 0.3037252248790798 0  1.2047200822443 0.333390946843623 0  1.196175419665261 0.3628558465680779 0  1.186910225741296 0.3921021754986144 0  1.176930081478776 0.4211123167402751 0  1.166240998543424 0.4498687956687352 0  1.154849415639108 0.4783542904563622 0  1.142762194629413 0.5065516425062373 0  1.129986616404304 0.5344438667878526 0  1.116530376494394 0.5620141620682582 0  1.102401580435444 0.5892459210324971 0  1.087608738885889 0.61612274028723 0  1.07216076250034 0.642628430241527 0  1.056066956562134 0.6687470248588714 0  1.039337015378182 0.6944627912745027 0  1.02198101643948 0.7197602392723067 0  1.004009414350806 0.7446241306155417 0  0.9854330345332579 0.7690394882257835 0  0.9662630667034212 0.7929916052045569 0  0.9465110581331058 0.8164660536922209 0  0.9261889066936989 0.8394486935587729 0  0.9053088536893338 0.8619256809213336 0  0.8838834764831844 0.8838834764831843 0  0.8619256809213337 0.9053088536893337 0  0.8394486935587729 0.9261889066936989 0  0.8164660536922209 0.9465110581331055 0  0.7929916052045569 0.9662630667034212 0  0.7690394882257835 0.9854330345332578 0  0.7446241306155419 1.004009414350806 0  0.7197602392723067 1.02198101643948 0  0.6944627912745028 1.039337015378182 0  0.6687470248588716 1.056066956562134 0  0.642628430241527 1.07216076250034 0  0.6161227402872301 1.087608738885889 0  0.5892459210324973 1.102401580435444 0  0.5620141620682583 1.116530376494394 0  0.5344438667878527 1.129986616404304 0  0.5065516425062373 1.142762194629413 0  0.4783542904563623 1.154849415639108 0  0.4498687956687353 1.166240998543424 0  0.4211123167402751 1.176930081478776 0  0.3921021754986145 1.186910225741296 0  0.3628558465680779 1.196175419665261 0  0.333390946843623 1.2047200822443 0  0.30372522487908 1.21253906649318 0  0.2738765501960872 1.219627662548161 0  0.2438629025201604 1.225981600504038 0  0.2137023609503767 1.231597052986177 0  0.1834130930692022 1.236470637455976 0  0.1530133439990203 1.240599418248387 0  0.122521425411951 1.243980908340246 0  0.09195570449958432 1.246613070848363 0  0.06133459290927266 1.248494320256466 0  0.03067653565364033 1.249623523370255 0  7.654042494670958e-17 1.25 0  -0.03067653565364018 1.249623523370255 0  -0.06133459290927251 1.248494320256466 0  -0.09195570449958416 1.246613070848363 0  -0.1225214254119508 1.243980908340246 0  -0.1530133439990202 1.240599418248387 0  -0.1834130930692021 1.236470637455976 0  -0.2137023609503766 1.231597052986177 0  -0.2438629025201602 1.225981600504038 0  -0.2738765501960871 1.219627662548161 0  -0.3037252248790798 1.21253906649318 0  -0.3333909468436229 1.2047200822443 0  -0.3628558465680777 1.196175419665261 0  -0.3921021754986143 1.186910225741296 0  -0.4211123167402749 1.176930081478776 0  -0.4498687956687352 1.166240998543424 0  -0.4783542904563621 1.154849415639108 0  -0.5065516425062372 1.142762194629413 0  -0.5344438667878524 1.129986616404304 0  -0.5620141620682584 1.116530376494394 0  -0.5892459210324972 1.102401580435444 0  -0.61612274028723 1.087608738885889 0  -0.642628430241527 1.07216076250034 0  -0.6687470248588713 1.056066956562134 0  -0.6944627912745025 1.039337015378182 0  -0.7197602392723067 1.02198101643948 0  -0.7446241306155417 1.004009414350806 0  -0.7690394882257834 0.9854330345332579 0  -0.7929916052045567 0.9662630667034213 0  -0.8164660536922207 0.9465110581331059 0  -0.8394486935587731 0.9261889066936988 0  -0.8619256809213337 0.9053088536893337 0  -0.8838834764831843 0.8838834764831844 0  -0.9053088536893334 0.8619256809213338 0  -0.9261889066936986 0.8394486935587732 0  -0.9465110581331058 0.8164660536922208 0  -0.9662630667034212 0.7929916052045569 0  -0.9854330345332578 0.7690394882257836 0  -1.004009414350806 0.7446241306155419 0  -1.02198101643948 0.7197602392723068 0  -1.039337015378182 0.6944627912745027 0  -1.056066956562134 0.6687470248588714 0  -1.07216076250034 0.6426284302415273 0  -1.087608738885889 0.6161227402872302 0  -1.102401580435444 0.5892459210324973 0  -1.116530376494394 0.5620141620682586 0  -1.129986616404304 0.5344438667878525 0  -1.142762194629413 0.5065516425062374 0  -1.154849415639108 0.4783542904563624 0  -1.166240998543424 0.4498687956687354 0  -1.176930081478776 0.4211123167402754 0  -1.186910225741296 0.3921021754986143 0  -1.196175419665261 0.362855846568078 0  -1.2047200822443 0.3333909468436231 0  -1.21253906649318 0.3037252248790801 0  -1.219627662548161 0.2738765501960876 0  -1.225981600504038 0.2438629025201608 0  -1.231597052986177 0.2137023609503765 0  -1.236470637455976 0.1834130930692023 0  -1.240599418248387 0.1530133439990204 0  -1.243980908340246 0.122521425411951 0  -1.246613070848363 0.09195570449958466 0  -1.248494320256466 0.06133459290927246 0  -1.249623523370255 0.03067653565364041 0  -1.25 1.530808498934192e-16 0  -1.249623523370255 -0.0306765356536401 0  -1.248494320256466 -0.06133459290927215 0  -1.246613070848363 -0.09195570449958437 0  -1.243980908340246 -0.1225214254119507 0  -1.240599418248387 -0.1530133439990201 0  -1.236470637455976 -0.183413093069202 0  -1.231597052986177 -0.2137023609503762 0  -1.225981600504038 -0.2438629025201605 0  -1.219627662548161 -0.2738765501960873 0  -1.21253906649318 -0.3037252248790798 0  -1.2047200822443 -0.3333909468436228 0  -1.196175419665261 -0.3628558465680776 0  -1.186910225741296 -0.392102175498614 0  -1.176930081478776 -0.4211123167402752 0  -1.166240998543424 -0.4498687956687352 0  -1.154849415639108 -0.4783542904563621 0  -1.142762194629413 -0.5065516425062371 0  -1.129986616404304 -0.5344438667878523 0  -1.116530376494394 -0.5620141620682583 0  -1.102401580435444 -0.5892459210324971 0  -1.087608738885889 -0.6161227402872299 0  -1.07216076250034 -0.6426284302415269 0  -1.056066956562134 -0.6687470248588712 0  -1.039337015378182 -0.6944627912745025 0  -1.02198101643948 -0.7197602392723067 0  -1.004009414350806 -0.7446241306155416 0  -0.9854330345332579 -0.7690394882257834 0  -0.9662630667034213 -0.7929916052045566 0  -0.946511058133106 -0.8164660536922207 0  -0.9261889066936989 -0.8394486935587731 0  -0.9053088536893338 -0.8619256809213336 0  -0.8838834764831847 -0.8838834764831843 0  -0.8619256809213338 -0.9053088536893334 0  -0.8394486935587733 -0.9261889066936986 0  -0.8164660536922214 -0.9465110581331053 0  -0.7929916052045574 -0.9662630667034209 0  -0.7690394882257841 -0.9854330345332574 0  -0.7446241306155414 -1.004009414350806 0  -0.7197602392723066 -1.02198101643948 0  -0.6944627912745027 -1.039337015378182 0  -0.6687470248588716 -1.056066956562134 0  -0.6426284302415273 -1.07216076250034 0  -0.6161227402872302 -1.087608738885889 0  -0.5892459210324973 -1.102401580435444 0  -0.5620141620682586 -1.116530376494394 0  -0.5344438667878531 -1.129986616404304 0  -0.506551642506238 -1.142762194629413 0  -0.4783542904563629 -1.154849415639108 0  -0.4498687956687349 -1.166240998543424 0  -0.4211123167402749 -1.176930081478776 0  -0.3921021754986143 -1.186910225741296 0  -0.3628558465680781 -1.196175419665261 0  -0.3333909468436231 -1.2047200822443 0  -0.3037252248790802 -1.21253906649318 0  -0.2738765501960876 -1.219627662548161 0  -0.2438629025201608 -1.225981600504038 0  -0.2137023609503771 -1.231597052986176 0  -0.1834130930692029 -1.236470637455976 0  -0.1530133439990199 -1.240599418248387 0  -0.1225214254119506 -1.243980908340246 0  -0.09195570449958419 -1.246613070848363 0  -0.06133459290927254 -1.248494320256466 0  -0.03067653565364049 -1.249623523370255 0  -2.296212748401287e-16 -1.25 0  0.03067653565364003 -1.249623523370255 0  0.06133459290927207 -1.248494320256466 0  0.09195570449958373 -1.246613070848363 0  0.1225214254119501 -1.243980908340246 0  0.1530133439990195 -1.240599418248387 0  0.1834130930692024 -1.236470637455976 0  0.2137023609503766 -1.231597052986177 0  0.2438629025201604 -1.225981600504038 0  0.2738765501960872 -1.219627662548161 0  0.3037252248790797 -1.21253906649318 0  0.3333909468436227 -1.2047200822443 0  0.3628558465680776 -1.196175419665261 0  0.3921021754986139 -1.186910225741296 0  0.4211123167402745 -1.176930081478776 0  0.4498687956687345 -1.166240998543424 0  0.4783542904563625 -1.154849415639108 0  0.5065516425062375 -1.142762194629413 0  0.5344438667878527 -1.129986616404304 0  0.5620141620682583 -1.116530376494394 0  0.589245921032497 -1.102401580435444 0  0.6161227402872298 -1.087608738885889 0  0.6426284302415269 -1.07216076250034 0  0.6687470248588712 -1.056066956562134 0  0.6944627912745023 -1.039337015378182 0  0.7197602392723061 -1.02198101643948 0  0.7446241306155411 -1.004009414350806 0  0.7690394882257838 -0.9854330345332576 0  0.792991605204557 -0.9662630667034211 0  0.8164660536922209 -0.9465110581331058 0  0.8394486935587729 -0.9261889066936989 0  0.8619256809213336 -0.9053088536893338 0  0.8838834764831842 -0.8838834764831847 0  0.9053088536893333 -0.8619256809213339 0  0.9261889066936986 -0.8394486935587733 0  0.9465110581331053 -0.8164660536922214 0  0.9662630667034209 -0.7929916052045574 0  0.9854330345332574 -0.7690394882257843 0  1.004009414350806 -0.7446241306155416 0  1.02198101643948 -0.7197602392723066 0  1.039337015378182 -0.6944627912745027 0  1.056066956562134 -0.6687470248588716 0  1.07216076250034 -0.6426284302415274 0  1.087608738885889 -0.6161227402872304 0  1.102401580435443 -0.5892459210324974 0  1.116530376494394 -0.5620141620682587 0  1.129986616404304 -0.5344438667878532 0  1.142762194629413 -0.50655164250623
[...]
<PointData  Scalars="f_5586154"> 
<DataArray  type="Float64"  Name="f_5586154"  format="ascii">3.3960766454363932e-05  1.9179415073710727e-04  3.5266926213047120e-04  5.1191938146566017e-04  6.7913947886107248e-04  8.4785229362462880e-04  9.8687290726787343e-04  1.1405368941222872e-03  1.2717044818037948e-03  1.3927910892929261e-03  1.5561061977266760e-03  1.6905507776947097e-03  1.8278139522407016e-03  1.9958085751486626e-03  2.1558218815406292e-03  2.1785064908142610e-03  2.2656568850254158e-03  2.4401084392583414e-03  2.5649916556971697e-03  2.6879710886902673e-03  2.6807748352355772e-03  2.6842280491347834e-03  2.8130801962298253e-03  2.8066897283025383e-03  2.8800247221889533e-03  2.9148312287507923e-03  3.0227151567547841e-03  3.1926370900538775e-03  3.2856397997537761e-03  3.1833579914349111e-03  3.2225840081624730e-03  3.2962700332624397e-03  3.2445610567016130e-03  3.1005377572775553e-03  3.0436823312434327e-03  2.9839327279959876e-03  2.8604078253519206e-03  2.9400923987636433e-03  2.7907849286622354e-03  2.7165409252096167e-03  2.7507119359779261e-03  2.6975261346801121e-03  2.5620979361073446e-03  2.5054667170185179e-03  2.4809602390787112e-03  2.3526689179561998e-03  2.2298965123893123e-03  2.1892849613574096e-03  2.0814074538364549e-03  1.8849094314855196e-03  1.6560563487746844e-03  1.5779415888280527e-03  1.4882677426665608e-03  1.4222756300671653e-03  1.2897769982194813e-03  1.1155780019993910e-03  1.0000762265357235e-03  8.5350870356399385e-04  6.9389277503929293e-04  5.3611237872104741e-04  4.0708814802313910e-04  1.7515211809085167e-04  -3.0658246062224609e-05  -5.6242575648648758e-05  -1.3125741483306858e-04  -3.9498501786255891e-04  -4.0188635601696949e-04  -5.7407200019583230e-04  -6.5238945750094302e-04  -8.0839068987370913e-04  -8.6329059182817757e-04  -1.0716838447342402e-03  -1.0539877402223406e-03  -1.1731410937309979e-03  -1.1114906769339643e-03  -1.2962462623281670e-03  -1.2489648780656408e-03  -1.1730812465053744e-03  -1.2955979313231565e-03  -1.3059596975368054e-03  -1.1465099472540757e-03  -1.2390886522393820e-03  -1.1845277623834935e-03  -1.0572910909623545e-03  -8.9545618507421961e-04  -7.0399267966010334e-04  -8.4447664799678127e-04  -3.8056933385907806e-04  -2.2703435257794795e-05  -6.1685016335061554e-04  -5.1684997063594813e-04  -9.4937852064626554e-05  -3.0778142026955150e-04  -1.1913909790365621e-05  8.0013392700700349e-05  8.3922521576295392e-04  -2.0174288098864272e-04  -7.0344469329243953e-04  7.3020071413868696e-04  5.2857516612402587e-03  9.3212017827004889e-03  1.1214672942777221e-02  1.2865062476195973e-02  1.4177118069558499e-02  1.6124496651885711e-02  1.7030163915214822e-02  1.7947528888633955e-02  1.8743331158075242e-02  1.9384913474993298e-02  1.9736325980042310e-02  2.0513437668116662e-02  2.0202811592647422e-02  2.0208030015720461e-02  2.0369521017389265e-02  2.0113856625209939e-02  1.9632526244881512e-02  1.8903565329734182e-02  1.8152760044990661e-02  1.7256924889107818e-02  1.6191025620850671e-02  1.4824235469964425e-02  1.3277603115548922e-02  1.1711863389212832e-02  1.0050476996981037e-02  8.2816519076228407e-03  6.2565663917578899e-03  4.1694245742122504e-03  2.1697621915463677e-03  1.8064772418926257e-04  -1.8163255457951629e-03  -3.8183809335562680e-03  -5.9285330049929693e-03  -7.9361225325051167e-03  -9.7031423850183103e-03  -1.1373419077361516e-02  -1.2938963092753681e-02  -1.4498252785389423e-02  -1.5853887633565274e-02  -1.6954616090707982e-02  -1.7925034517909336e-02  -1.8745304233023539e-02  -1.9510173266547051e-02  -1.9952979651326742e-02  -1.9888886417024191e-02  -2.0381141161673434e-02  -2.0008713468386483e-02  -2.0335363241983873e-02  -1.9381627978542298e-02  -1.8688790926348901e-02  -1.8233387022404107e-02  -1.7558363180290582e-02  -1.6489840812205087e-02  -1.4601698054467021e-02  -1.3337726244619747e-02  -1.1661498955061330e-02  -9.0096288861983564e-03  -5.2124458787771817e-03  -7.3426288483519290e-03  1.8770258911823739e-04  3.5023433635254179e-04  1.2414999038535457e-03  3.2513939911993676e-04  -3.9563828367525907e-05  -1.7939668402664464e-04  -6.4374452014818550e-05  4.0350033048566493e-04  5.5930821792168971e-04  3.1589442813899355e-04  4.5581632500462087e-04  8.7296173466138436e-04  6.2273427402961996e-04  7.7732815934266209e-04  1.0911115165185843e-03  1.0753388547389434e-03  1.1828319278769912e-03  1.2687751342077048e-03  1.3136336511865685e-03  1.3910030079321448e-03  1.3329825168606896e-03  1.3707701346477095e-03  1.5778824073376600e-03  1.4527614348390765e-03  1.1966452744950375e-03  1.3198480795677946e-03  8.8968197052653362e-04  1.0744213233063969e-03  9.3949031935926990e-04  8.8135237990966467e-04  7.1750773670500043e-04  7.2572345101320265e-04  4.5252251396230887e-04  4.4220616838010928e-04  3.3850143900559073e-04  1.4117012084635861e-04  -2.5474872342161984e-05  -1.4808048353997253e-04  -3.4228850746041218e-04  -4.7515243312715264e-04  -6.1162349943234590e-04  -7.9835107536152950e-04  -9.7077934620070749e-04  -1.2487902825586547e-03  -1.4198972867218874e-03  -1.4776053635077865e-03  -1.6202632590404809e-03  -1.8345853247191701e-03  -1.9214805819001510e-03  -2.1805934147741315e-03  -2.3820030828287961e-03  -2.3788366477401389e-03  -2.4004244978333691e-03  -2.6712808817195453e-03  -2.7732993412536073e-03  -2.8074180694404932e-03  -2.9511185558719010e-03  -2.9635915576946962e-03  -2.9627807868650496e-03  -3.1388632908756014e-03  -3.1736524270275573e-03  -3.0625890780051823e-03  -3.3086020713694706e-03  -3.4210979897340639e-03  -3.5176342488170845e-03  -3.5491938743196956e-03  -3.4885960891665332e-03  -3.5669539406409201e-03  -3.5180673681475092e-03  -3.3177101855838085e-03  -3.3523876614734139e-03  -3.2668748604884421e-03  -3.2373605186645717e-03  -3.2976039239651848e-03  -3.1853608128582689e-03  -3.0301295767842301e-03  -2.9235476787852644e-03  -2.8007160495439219e-03  -2.7968456649944190e-03  -2.5649501219254544e-03  -2.4741323733214853e-03  -2.4425811703519158e-03  -2.3730889241804112e-03  -2.1923344402832064e-03  -2.0938582979040557e-03  -2.0420860390583328e-03  -1.8837496370286706e-03  -1.6557314218567675e-03  -1.4560519643359339e-03  -1.3405852005902211e-03  -1.1805730054047165e-03  -1.0615115820048102e-03  -9.4526900615817292e-04  -7.4381110491223779e-04  -6.1805042410299966e-04  -4.6950478422988604e-04  -3.1591065210495264e-04  -1.5934485289646028e-04  -5.7113196868152313e-04  7.3627902651770730e-05  6.0666687710647074e-04  1.2250393806921046e-03  1.8650077811146351e-03  2.4631741166682105e-03  3.0216178130659265e-03  3.5730504844780826e-03  4.1574749977721578e-03  4.7093285151956314e-03  5.2432475874413850e-03  5.8062052803917385e-03  6.3280315197339820e-03  6.8586321789124560e-03  7.3601087533203243e-03  7.8701497733846288e-03  8.3442313207166639e-03  8.8058189095700391e-03  9.2680143227736253e-03  9.6899002889029289e-03  1.0084592383258215e-02  1.0471812301933494e-02  1.0824203659473943e-02  1.1132074069164730e-02  1.1409037098931962e-02  1.1630641660390881e-02  1.1882146395358185e-02  1.2111874828153148e-02  1.2299544377385450e-02  1.2501050482714387e-02  1.2642624860671452e-02  1.2751269648898011e-02  1.2820523958752323e-02  1.2892692457891538e-02  1.2934531551730305e-02  1.2948500725902127e-02  1.2918060936237161e-02  1.2893579554091912e-02  1.2830076601138081e-02  1.2728158818440999e-02  1.2601131159905157e-02  1.2436006588100295e-02  1.2239032242442075e-02  1.2018533903440348e-02  1.1790523204793058e-02  1.1503090649681259e-02  1.1186062316886262e-02  1.0855548659532548e-02  1.0444165486212614e-02  1.0029638025318414e-02  9.5932862227981006e-03  9.1685071490458514e-03  8.7313495206446899e-03  8.2431374917937856e-03  7.7373568376274101e-03  7.1806438026292638e-03  6.5323173553847496e-03  5.8909493718274598e-03  5.2115491240109224e-03  4.4617960738350566e-03  3.6802652285165527e-03  2.9010125176728353e-03  2.1094234567173237e-03  1.2704255409209488e-03  4.1730425466042492e-04  -4.2737357037246648e-04  -1.2553523398852271e-03  -2.2110263691140727e-03  -3.0783822763311552e-03  -3.9109667081347723e-03  -4.8673297713310087e-03  -5.6245481793288435e-03  -6.5803261633383759e-03  -7.4929173922900208e-03  -8.3333671425682918e-03  -9.3398541094932355e-03  -1.0215980906778903e-02  -1.1136570874314288e-02  -1.1920870257545827e-02  -1.2887038667367123e-02  -1.3774471002834510e-02  -1.4578246327580213e-02  -1.5511684140738937e-02  -1.6349775559513727e-02  -1.7114421581283387e-02  -1.7873342843599333e-02  -1.8489448189056488e-02  -1.9043404671149136e-02  -1.9507348670008376e-02  -1.9992319458932262e-02  -2.0422069485326291e-02  -2.0715478456094821e-02  -2.1048327701696488e-02  -2.1240279530641559e-02  -2.1387532936931335e-02  -2.1592429534957758e-02  -2.1772625201695248e-02  -2.1904769833634003e-02  -2.2118446542118319e-02  -2.2243977568513731e-02  -2.2385696205670005e-02  -2.2427072778326014e-02  -2.2522015646586926e-02  -2.2540998880783335e-02  -2.2566621823264590e-02  -2.2611152355172033e-02  -2.2567840975490333e-02  -2.2386216238247658e-02  -2.2189575579907275e-02  -2.1934594179900214e-02  -2.1645826730655304e-02  -2.1181128936203972e-02  -2.0707614844859411e-02  -2.0142029527246481e-02  -1.9732806489235998e-02  -1.8984462326134238e-02  -1.8178609962394992e-02  -1.7260706537436991e-02  -1.6272087683695431e-02  -1.5222624831953895e-02  -1.3898224261268863e-02  -1.2816417237206158e-02  -1.1457541980664803e-02  -9.9774870710666770e-03  -8.4473392268810468e-03  -6.8826383814601143e-03  -5.2020146630902264e-03  -3.6541231815176529e-03  -1.9415014037808341e-03  -1.7945788014758914e-04  1.5826568243888822e-03  3.3060267587495945e-03  4.8953979285300681e-03  6.5598020548964971e-03  8.1641019923411641e-03  9.7305448469688569e-03  1.1247199347090819e-02  1.2643916630344375e-02  1.3761894256765977e-02  1.5119530650471913e-02  1.6222096987674395e-02  1.7594472668311104e-02  1.8413410944331431e-02  1.9136742207322588e-02  1.9762626552254622e-02  2.0295033884623871e-02  2.0844370129475081e-02  2.0846537562308531e-02  2.1282429844471318e-02  2.1682395414218021e-02  2.1887534612604159e-02  2.2136176342104550e-02  2.2210331672107172e-02  2.2259136933283137e-02  2.2293420876589955e-02  2.2249645576936986e-02  2.2215990040976793e-02  2.2120623161578940e-02  2.1972680545519794e-02  2.1880818356588169e-02  2.1687853403238540e-02  2.1587126268187175e-02  2.1412493290407428e-02  2.1294510135747031e-02  2.1116060582673846e-02  2.0868869756177501e-02  2.0650314677730427e-02  2.0379226468225497e-02  2.0009070486207155e-02  1.9632494792804076e-02  1.9252939854877329e-02  1.8810067777583057e-02  1.8174729992826714e-02  1.7458669863060727e-02  1.6697125917477188e-02  1.6036747432509966e-02  1.5322212047635083e-02  1.4480276105013385e-02  1.3536921431380796e-02  1.2727643001767926e-02  1.1839823890970921e-02  1.0916884416737658e-02  1.0152368860883916e-02  9.2382705018078017e-03  8.3675141482663345e-03  7.3964351646617597e-03  6.5486559979306995e-03  5.6498761451362206e-03  4.8325030129524344e-03  3.8779283561388733e-03  3.0877191988309127e-03  2.1392434821321756e-03  1.2140982198806233e-03  3.5454172078844455e-04  -5.6105921120013207e-04  -1.3874305439740642e-03  -2.2372072597144151e-03  -3.0940408361437898e-03  -3.8922103988329633e-03  -4.6088220962345397e-03  -5.2993003575284364e-03  -5.9906107823761269e-03  -6.6731700441446488e-03  -7.3041144492413364e-03  -7.9161673888388101e-03  -8.5610836796710787e-03  -9.1519918938065721e-03  -9.6410237670391391e-03  -1.0112646106738815e-02  -1.0573210452982850e-02  -1.1014056997757699e-02  -1.1431706150965408e-02  -1.1801519350155273e-02  -1.2105114551104735e-02  -1.2369566755593612e-02  -1.2641588355929672e-02  -1.2890552829363737e-02  -1.3069436997607807e-02  -1.3233700012488921e-02  -1.3368814979710344e-02  -1.3501423075086642e-02  -1.3597656542061531e-02  -1.3651259758247259e-02  -1.3642825866372828e-02  -1.3617116523150091e-02  -1.3586565737776432e-02  -1.3451548460507556e-02  -1.3271127723717174e-02  -1.3122113320002409e-02  -1.2917525289445111e-02  -1.2719914335957351e-02  -1.2467112224760461e-02  -1.2246295979826743e-02  -1.2020857194732094e-02  -1.1778278606132446e-02  -1.1460971695992174e-02  -1.1078615687085382e-02  -1.0733625949008093e-02  -1.0311571895846092e-02  -9.8820735664402939e-03  -9.4791595827248293e-03  -9.0213220917430038e-03  -8.6061923784678980e-03  -8.1184909723254900e-03  -7.6173126961193854e-03  -7.0747898468084408e-03  -6.5715669411796776e-03  -6.0050283189630599e-03  -5.4541443058339842e-03  -4.8700703554127121e-03  -4.2656162254594608e-03  -3.7006923990554929e-03  -3.0798721055205810e-03  -2.4478183762372649e-03  -1.8338138727606380e-03  -1.2138333592146655e-03  4.7941606546929633e-05  -8.0687753507435744e-04  9.1327768453201873e-04  -1.4790483570582818e-03  1.3442098048808673e-03  -1.6480349330107863e-03  1.7148972519206744e-03  -1.5014774344879423e-03  1.9361537352623164e-03  -1.2032521696083911e-03  1.7020918373587643e-03  -1.1950648405030194e-03  1.7813768740269557e-03  -9.5420089903488917e-04  1.3275372266882289e-03  -9.4140088904977987e-04  2.4699232327068383e-03  -2.6959703149328977e-03  5.9212207367483924e-05  3.1559867886710277e-03  -2.0695198522626399e-05  2.2195101698643246e-04  -6.3985313503620692e-05  -2.0869595637878946e-03  5.7319100413153797e-03  2.2279111739392054e-03  -5.4959508397606919e-03  -2.6121684689935001e-03  -1.9191015253417122e-04  2.5550959789477818e-04  -8.6780530508145624e-03  2.6803084698415291e-03  9.0006246797608349e-03  4.2260003372183147e-05  -5.9012911478744603e-05  -1.0662037977356379e-02  1.0957007281658063e-02  4.5546192391449621e-05  -1.7904092484101459e-03  4.1135072848600909e-04  -3.9562097757315514e-04  2.8868334337736070e-04  5.9352563182091779e-05  9.9749869677757879e-05  6.5722714101593409e-04  -1.1868359542836123e-02  1.0993220481604640e-02  8.1546849992161102e-04  -6.8244425176810966e-04  8.4351812492744309e-04  -7.8977887869891049e-04  -1.6038234467748920e-04  4.1695252296838545e-04  -9.5384496225930349e-05  7.5453204086700946e-03  4.3128755380320025e-03  -6.3058040838850129e-05  8.0214435712220201e-04  -8.0786167487837855e-04  1.1290863688320539e-02  -1.1444538331269681e-02  -4.0379537964912084e-03  -7.3741434156788686e-03  1.0691068893614541e-02  -1.0267171153846982e-02  -1.1961798125677603e-02  -2.9274074088002589e-04  5.3517458506488719e-04  1.2294730715849903e-03  7.0129545668993262e-04  -1.5545652353067439e-03  9.5111631356795418e-03  -1.0092470671104265e-02  8.9189357277908651e-03  -5.6949407190933182e-04  1.1381403974175709e-02  4.7289410430082276e-03  -1.1612223207466735e-03  5.2696133345120583e-04  3.9848120942727447e-04  -3.9593238904456890e-04  4.4072660409624602e-04  -1.1233011936271254e-02  -3.6507812296469861e-04  -5.8582365017817342e-04  -4.2010761251047024e-03  7.2243623567346963e-03  -7.7638424831708791e-03  -1.6464127411950870e-03  -3.7751153742883816e-04  -1.1773936193209270e-02  1.8336781298108574e-03  1.0296647953276889e-02  1.2859811282137363e-03  9.2747875089724922e-03  8.6855703780325515e-05  1.7119165559440077e-04  2.0063273401701794e-03  6.6632015366068626e-04  -1.8796614362384635e-03  -8.6971989947192147e-03  2.2757451155401283e-04  7.9960331630358399e-04  -1.9400318824296602e-04  -4.7159888673627979e-03  -1.0941552656329138e-03  -5.1444897218665456e-04  -9.3889769563712902e-04  2.9207715955025435e-03  1.3042782832101770e-03  -1.3540822620037140e-03  9.3938937347142317e-04  4.6777905397193850e-04  1.3723703770360337e-02  -9.6464025394443452e-03  -1.6057731723386943e-04  1.1622419811249131e-04  -2.8398007574176662e-04  1.4196625075845706e-03  5.4389809471377566e-03  -1.5359766568764823e-03  -2.7249679415707837e-04  7.7616729807708055e-06  5.5229048447505832e-03  1.0849325325809225e-03  8.0287031634578149e-03  -1.5847028616780397e-02  2.3957835394877529e-04  7.7146472344014755e-05  -1.8201553884160564e-03  -2.5775634783571162e-03  -1.8813876287639692e-04  1.0121363489390542e-03  6.0770619973212251e-04  -1.0048940636307390e-03  8.9237831141197329e-05  1.4499716711450330e-03  3.3080953086275944e-03  1.6323698237767328e-02  2.9092713132099917e-04  -1.5894959989883931e-03  -1.4238243264952030e-03  8.7439933970204914e-03  1.3586023855777494e-03  -4.9989182107160754e-03  -6.4862078074082461e-03  -3.3808405712920262e-05  2.9110564155837657e-03  -4.2920649393801355e-04  1.8048826080450545e-03  -5.1003034155374305e-04  1.5350658372754364e-03  2.1966119210149881e-04  1.7283917245230207e-03  -5.0567696959836269e-04  -1.3933971910284987e-04  6.9670953033440786e-03  6.3329956668879423e-04  -1.6003433457026260e-03  -1.6859194413995321e-03  5.3467262384211635e-04  -6.8506381433139265e-04  3.2372841738141770e-03  -6.5652922890900708e-03  7.9285651948556250e-03  -1.7329477285900549e-03  -8.2635269745579745e-03  -9.1633796659150359e-03  5.3773950808119622e-04  1.9749726849421028e-03  4.4567041575729596e-03  -6.6438787179478268e-03  -1.7365159452942054e-03  -5.2703095419644901e-04  -1.8117210976144042e-02  1.2894296103122770e-03  1.4321568732281473e-03  -1.2686413677731637e-03  6.0985284001078693e-03  1.1786332502549710e-02  -1.3815272730744153e-03  -1.4856674699840905e-03  7.5876317026930785e-04  -1.1329356674571179e-02  -1.0813257292186206e-02  1.4526228933881547e-03  -2.0089122604466914e-03  1.1113052669359167e-02  1.0740332689324360e-02  -3.0900392980446408e-03  1.7774674623774456e-02  3.4283327086929598e-04  1.4125835798321992e-03  9.8061116019539322e-03  -1.1294349466919405e-03  -1.0707358665513545e-03  -4.7371142899780189e-04  8.4400403576479956e-03  2.7030279694788412e-03  -3.9027608411135802e-04  1.9852720333632026e-05  -2.3673458551261442e-03  -1.2333178310979962e-02  -1.9250551078784591e-02  9.4958973714895215e-04  -6.5336760889988929e-03  3.7385058262499150e-04  6.9755613122927480e-03  -2.2756687521852986e-03  3.3015391851185107e-04  4.9796445011365178e-03  1.1873715326547097e-02  1.2274796341922227e-03  1.1574265985944377e-03  -6.1127518755836396e-05  3.5205902095378298e-04  3.0586643223656424e-03  -6.6186665218981641e-03  -7.9256331923545874e-04  1.8577033493121141e-02  -7.8004286674009911e-03  -1.0642070069840121e-03  -1.1197348585776569e-03  8.2233265873266179e-04  8.9914294926064537e-04  1.0075818457710580e-04  1.4269475007932084e-03  4.5874602789430620e-03  -6.1318579060735895e-03  -6.2373204282224004e-03  -5.5454570147729708e-04  -1.2235146736065251e-02  -3.9606503878658684e-03  -9.8658711394757916e-04  -3.1290562796963370e-05  -2.9472799472861545e-04  -7.1923549733627528e-04  1.1964077422002464e-03  -4.5368608812774411e-04  -1.9461371715746738e-02  7.6408889470744182e-03  -6.9337668464856386e-03  -1.0136444415305148e-02  1.6763073849045704e-03  3.1434415245141492e-04  8.0380635596324201e-03  1.4411679170540953e-03  -9.8774782221166309e-04  -8.5603433611006925e-03  -9.2932890539404250e-04  1.1813044105762059e-02  -2.8058005853489687e-03  1.9081977635937386e-02  7.5185820141373345e-04  -1.5936640111781542e-03  8.4375651851740152e-04  2.2017600832196574e-04  -4.4109127315654373e-04  9.9756725916928107e-04  -4.4978626247881431e-03  -6.2577320311124987e-04  -8.3282112483631650e-04  7.5496404625130878e-04  8.4139846898881256e-04  -1.9971946008922620e-02  1.7348934237912546e-03  1.0522017145424091e-02  1.2789009943091998e-03  1.6001442610525777e-03  -1.2292125316473845e-02  -1.2769323822596233e-02  8.9769117628505212e-03  9.1438265356724082e-03  1.4910722237147654e-03  -3.1761473606062036e-03  -3.7436065134267740e-04  -2.6527337866289083e-03  -1.1821818307291937e-04  -1.6806089124404055e-04  -9.4149045387679738e-04  7.5474575115617819e-04  1.9771229033921957e-03  -4.0564815356010857e-04  -1.6529912136150412e-03  -1.1596831060666260e-02  -2.1039072317751788e-03  -9.6744064119946363e-03  1.9618032518150110e-02  5.2136425545427106e-05  -3.7530065942837482e-04  8.8876325977438105e-03  8.9279266273671251e-04  -1.1136602370908676e-02  -8.6662228188867055e-04  1.1570203980767730e-02  1.9644089054558708e-03  -2.5984948156311969e-03  2.8422102506810463e-04  -7.3091190910956824e-03  1.2118465072944841e-02  2.773123957780