<?xml version="1.0"?>
<VTKFile type="UnstructuredGrid"  version="0.1"  >
<UnstructuredGrid>
<Piece  NumberOfPoints="3832" NumberOfCells="6444">
<Points>
<DataArray  type="Float64"  NumberOfComponents="3"  format="ascii">1.25 0 0  1.249623523370255 0.03067653565364036 0  1.248494320256466 0.06133459290927252 0  1.246613070848363 0.09195570449958429 0  1.243980908340246 0.1225214254119508 0  1.240599418248387 0.1530133439990203 0  1.236470637455976 0.1834130930692022 0  1.231597052986177 0.2137023609503765 0  1.225981600504038 0.2438629025201603 0  1.219627662548161 0.2738765501960873 0  1.21253906649318 0.3037252248790798 0  1.2047200822443 0.333390946843623 0  1.196175419665261 0.3628558465680779 0  1.186910225741296 0.3921021754986144 0  1.176930081478776 0.4211123167402751 0  1.166240998543424 0.4498687956687352 0  1.154849415639108 0.4783542904563622 0  1.142762194629413 0.5065516425062373 0  1.129986616404304 0.5344438667878526 0  1.116530376494394 0.5620141620682582 0  1.102401580435444 0.5892459210324971 0  1.087608738885889 0.61612274028723 0  1.07216076250034 0.642628430241527 0  1.056066956562134 0.6687470248588714 0  1.039337015378182 0.6944627912745027 0  1.02198101643948 0.7197602392723067 0  1.004009414350806 0.7446241306155417 0  0.9854330345332579 0.7690394882257835 0  0.9662630667034212 0.7929916052045569 0  0.9465110581331058 0.8164660536922209 0  0.9261889066936989 0.8394486935587729 0  0.9053088536893338 0.8619256809213336 0  0.8838834764831844 0.8838834764831843 0  0.8619256809213337 0.9053088536893337 0  0.8394486935587729 0.9261889066936989 0  0.8164660536922209 0.9465110581331055 0  0.7929916052045569 0.9662630667034212 0  0.7690394882257835 0.9854330345332578 0  0.7446241306155419 1.004009414350806 0  0.7197602392723067 1.02198101643948 0  0.6944627912745028 1.039337015378182 0  0.6687470248588716 1.056066956562134 0  0.642628430241527 1.07216076250034 0  0.6161227402872301 1.087608738885889 0  0.5892459210324973 1.102401580435444 0  0.5620141620682583 1.116530376494394 0  0.5344438667878527 1.129986616404304 0  0.5065516425062373 1.142762194629413 0  0.4783542904563623 1.154849415639108 0  0.4498687956687353 1.166240998543424 0  0.4211123167402751 1.176930081478776 0  0.3921021754986145 1.186910225741296 0  0.3628558465680779 1.196175419665261 0  0.333390946843623 1.2047200822443 0  0.30372522487908 1.21253906649318 0  0.2738765501960872 1.219627662548161 0  0.2438629025201604 1.225981600504038 0  0.2137023609503767 1.231597052986177 0  0.1834130930692022 1.236470637455976 0  0.1530133439990203 1.240599418248387 0  0.122521425411951 1.243980908340246 0  0.09195570449958432 1.246613070848363 0  0.06133459290927266 1.248494320256466 0  0.03067653565364033 1.249623523370255 0  7.654042494670958e-17 1.25 0  -0.03067653565364018 1.249623523370255 0  -0.06133459290927251 1.248494320256466 0  -0.09195570449958416 1.246613070848363 0  -0.1225214254119508 1.243980908340246 0  -0.1530133439990202 1.240599418248387 0  -0.1834130930692021 1.236470637455976 0  -0.2137023609503766 1.231597052986177 0  -0.2438629025201602 1.225981600504038 0  -0.2738765501960871 1.219627662548161 0  -0.3037252248790798 1.21253906649318 0  -0.3333909468436229 1.2047200822443 0  -0.3628558465680777 1.196175419665261 0  -0.3921021754986143 1.186910225741296 0  -0.4211123167402749 1.176930081478776 0  -0.4498687956687352 1.166240998543424 0  -0.4783542904563621 1.154849415639108 0  -0.5065516425062372 1.142762194629413 0  -0.5344438667878524 1.129986616404304 0  -0.5620141620682584 1.116530376494394 0  -0.5892459210324972 1.102401580435444 0  -0.61612274028723 1.087608738885889 0  -0.642628430241527 1.07216076250034 0  -0.6687470248588713 1.056066956562134 0  -0.6944627912745025 1.039337015378182 0  -0.7197602392723067 1.02198101643948 0  -0.7446241306155417 1.004009414350806 0  -0.7690394882257834 0.9854330345332579 0  -0.7929916052045567 0.9662630667034213 0  -0.8164660536922207 0.9465110581331059 0  -0.8394486935587731 0.9261889066936988 0  -0.8619256809213337 0.9053088536893337 0  -0.8838834764831843 0.8838834764831844 0  -0.9053088536893334 0.8619256809213338 0  -0.9261889066936986 0.8394486935587732 0  -0.9465110581331058 0.8164660536922208 0  -0.9662630667034212 0.7929916052045569 0  -0.9854330345332578 0.7690394882257836 0  -1.004009414350806 0.7446241306155419 0  -1.02198101643948 0.7197602392723068 0  -1.039337015378182 0.6944627912745027 0  -1.056066956562134 0.6687470248588714 0  -1.07216076250034 0.6426284302415273 0  -1.087608738885889 0.6161227402872302 0  -1.102401580435444 0.5892459210324973 0  -1.116530376494394 0.5620141620682586 0  -1.129986616404304 0.5344438667878525 0  -1.142762194629413 0.5065516425062374 0  -1.154849415639108 0.4783542904563624 0  -1.166240998543424 0.4498687956687354 0  -1.176930081478776 0.4211123167402754 0  -1.186910225741296 0.3921021754986143 0  -1.196175419665261 0.362855846568078 0  -1.2047200822443 0.3333909468436231 0  -1.21253906649318 0.3037252248790801 0  -1.219627662548161 0.2738765501960876 0  -1.225981600504038 0.2438629025201608 0  -1.231597052986177 0.2137023609503765 0  -1.236470637455976 0.1834130930692023 0  -1.240599418248387 0.1530133439990204 0  -1.243980908340246 0.122521425411951 0  -1.246613070848363 0.09195570449958466 0  -1.248494320256466 0.06133459290927246 0  -1.249623523370255 0.03067653565364041 0  -1.25 1.530808498934192e-16 0  -1.249623523370255 -0.0306765356536401 0  -1.248494320256466 -0.06133459290927215 0  -1.246613070848363 -0.09195570449958437 0  -1.243980908340246 -0.1225214254119507 0  -1.240599418248387 -0.1530133439990201 0  -1.236470637455976 -0.183413093069202 0  -1.231597052986177 -0.2137023609503762 0  -1.225981600504038 -0.2438629025201605 0  -1.219627662548161 -0.2738765501960873 0  -1.21253906649318 -0.3037252248790798 0  -1.2047200822443 -0.3333909468436228 0  -1.196175419665261 -0.3628558465680776 0  -1.186910225741296 -0.392102175498614 0  -1.176930081478776 -0.4211123167402752 0  -1.166240998543424 -0.4498687956687352 0  -1.154849415639108 -0.4783542904563621 0  -1.142762194629413 -0.5065516425062371 0  -1.129986616404304 -0.5344438667878523 0  -1.116530376494394 -0.5620141620682583 0  -1.102401580435444 -0.5892459210324971 0  -1.087608738885889 -0.6161227402872299 0  -1.07216076250034 -0.6426284302415269 0  -1.056066956562134 -0.6687470248588712 0  -1.039337015378182 -0.6944627912745025 0  -1.02198101643948 -0.7197602392723067 0  -1.004009414350806 -0.7446241306155416 0  -0.9854330345332579 -0.7690394882257834 0  -0.9662630667034213 -0.7929916052045566 0  -0.946511058133106 -0.8164660536922207 0  -0.9261889066936989 -0.8394486935587731 0  -0.9053088536893338 -0.8619256809213336 0  -0.8838834764831847 -0.8838834764831843 0  -0.8619256809213338 -0.9053088536893334 0  -0.8394486935587733 -0.9261889066936986 0  -0.8164660536922214 -0.9465110581331053 0  -0.7929916052045574 -0.9662630667034209 0  -0.7690394882257841 -0.9854330345332574 0  -0.7446241306155414 -1.004009414350806 0  -0.7197602392723066 -1.02198101643948 0  -0.6944627912745027 -1.039337015378182 0  -0.6687470248588716 -1.056066956562134 0  -0.6426284302415273 -1.07216076250034 0  -0.6161227402872302 -1.087608738885889 0  -0.5892459210324973 -1.102401580435444 0  -0.5620141620682586 -1.116530376494394 0  -0.5344438667878531 -1.129986616404304 0  -0.506551642506238 -1.142762194629413 0  -0.4783542904563629 -1.154849415639108 0  -0.4498687956687349 -1.166240998543424 0  -0.4211123167402749 -1.176930081478776 0  -0.3921021754986143 -1.186910225741296 0  -0.3628558465680781 -1.196175419665261 0  -0.3333909468436231 -1.2047200822443 0  -0.3037252248790802 -1.21253906649318 0  -0.2738765501960876 -1.219627662548161 0  -0.2438629025201608 -1.225981600504038 0  -0.2137023609503771 -1.231597052986176 0  -0.1834130930692029 -1.236470637455976 0  -0.1530133439990199 -1.240599418248387 0  -0.1225214254119506 -1.243980908340246 0  -0.09195570449958419 -1.246613070848363 0  -0.06133459290927254 -1.248494320256466 0  -0.03067653565364049 -1.249623523370255 0  -2.296212748401287e-16 -1.25 0  0.03067653565364003 -1.249623523370255 0  0.06133459290927207 -1.248494320256466 0  0.09195570449958373 -1.246613070848363 0  0.1225214254119501 -1.243980908340246 0  0.1530133439990195 -1.240599418248387 0  0.1834130930692024 -1.236470637455976 0  0.2137023609503766 -1.231597052986177 0  0.2438629025201604 -1.225981600504038 0  0.2738765501960872 -1.219627662548161 0  0.3037252248790797 -1.21253906649318 0  0.3333909468436227 -1.2047200822443 0  0.3628558465680776 -1.196175419665261 0  0.3921021754986139 -1.186910225741296 0  0.4211123167402745 -1.176930081478776 0  0.4498687956687345 -1.166240998543424 0  0.4783542904563625 -1.154849415639108 0  0.5065516425062375 -1.142762194629413 0  0.5344438667878527 -1.129986616404304 0  0.5620141620682583 -1.116530376494394 0  0.589245921032497 -1.102401580435444 0  0.6161227402872298 -1.087608738885889 0  0.6426284302415269 -1.07216076250034 0  0.6687470248588712 -1.056066956562134 0  0.6944627912745023 -1.039337015378182 0  0.7197602392723061 -1.02198101643948 0  0.7446241306155411 -1.004009414350806 0  0.7690394882257838 -0.9854330345332576 0  0.792991605204557 -0.9662630667034211 0  0.8164660536922209 -0.9465110581331058 0  0.8394486935587729 -0.9261889066936989 0  0.8619256809213336 -0.9053088536893338 0  0.8838834764831842 -0.8838834764831847 0  0.9053088536893333 -0.8619256809213339 0  0.9261889066936986 -0.8394486935587733 0  0.9465110581331053 -0.8164660536922214 0  0.9662630667034209 -0.7929916052045574 0  0.9854330345332574 -0.7690394882257843 0  1.004009414350806 -0.7446241306155416 0  1.02198101643948 -0.7197602392723066 0  1.039337015378182 -0.6944627912745027 0  1.056066956562134 -0.6687470248588716 0  1.07216076250034 -0.6426284302415274 0  1.087608738885889 -0.6161227402872304 0  1.102401580435443 -0.5892459210324974 0  1.116530376494394 -0.5620141620682587 0  1.129986616404304 -0.5344438667878532 0  1.142762194629413 -0.50655164250623
[...]
<PointData  Scalars="f_9998468"> 
<DataArray  type="Float64"  Name="f_9998468"  format="ascii">3.4433992027817505e-05  1.9164885524020195e-04  3.5192221509911756e-04  5.1056040109629167e-04  6.7717371179350705e-04  8.4523238691116219e-04  9.8364859815797210e-04  1.1367102887123982e-03  1.2677183998620538e-03  1.3884312297255653e-03  1.5508876677040010e-03  1.6851221139648294e-03  1.8217737720386754e-03  1.9887373519626357e-03  2.1480998961592602e-03  2.1716070015782834e-03  2.2585409659128903e-03  2.4320252390416966e-03  2.5560560653357239e-03  2.6788364608762829e-03  2.6716136814931941e-03  2.6758651335333393e-03  2.8036242272226294e-03  2.7976443962326315e-03  2.8705144889209374e-03  2.9054620149116688e-03  3.0126545535007136e-03  3.1813322920656410e-03  3.2742599116987285e-03  3.1728005848239431e-03  3.2115170814108343e-03  3.2847552934320828e-03  3.2328600102677135e-03  3.0897794430732825e-03  3.0325811603532020e-03  2.9717393981602467e-03  2.8485822668726101e-03  2.9272345820368665e-03  2.7783575546981624e-03  2.7043982735745872e-03  2.7378415996832327e-03  2.6849418253562115e-03  2.5512201096016180e-03  2.4949354857746204e-03  2.4702058672514339e-03  2.3434506677792320e-03  2.2218766184370136e-03  2.1814948675768684e-03  2.0744748692681858e-03  1.8790227125202181e-03  1.6508671206308335e-03  1.5730522081798977e-03  1.4837808729840794e-03  1.4179742274861178e-03  1.2864003271054211e-03  1.1133280860529259e-03  9.9704711591228480e-04  8.5679935018222121e-04  7.0343126461411146e-04  5.4896586942414878e-04  4.0398872639874468e-04  1.6445109111455901e-04  -1.6474519023100928e-05  -6.9127126679248177e-05  -1.3574090376515256e-04  -3.7874168114199029e-04  -3.9064907166493860e-04  -5.6446972663555430e-04  -6.4942226004754977e-04  -8.0010925869736422e-04  -8.5468206148104037e-04  -1.0588675612182305e-03  -1.0444495824454886e-03  -1.1650797806932029e-03  -1.1094055688527561e-03  -1.2876978701586354e-03  -1.2458901648126457e-03  -1.1716604182905686e-03  -1.2918178765651534e-03  -1.3050899275624445e-03  -1.1516677116230509e-03  -1.2457673555255600e-03  -1.2080474860115126e-03  -1.1472439781593903e-03  -9.9068821570836240e-04  -1.2091192558530573e-03  -1.3802787566580630e-03  -9.2885300893479116e-04  -5.9010023294741969e-04  -7.0795911554944282e-04  -5.7766429873663371e-04  -1.2621251666307612e-04  -3.3748219315479484e-04  -1.3137794090182402e-04  -2.3808110829567249e-04  6.9345064501199420e-05  -5.3100029826227036e-04  -7.3180447642172321e-04  8.7265449966448996e-04  5.5845164498904065e-03  9.3543127313256789e-03  1.1229784901849586e-02  1.2875642692125480e-02  1.4178391297663752e-02  1.6126654347985152e-02  1.7031365633308145e-02  1.7949676830660202e-02  1.8749901006204731e-02  1.9398132446788598e-02  1.9757524315025955e-02  2.0557203316123023e-02  2.0259693651824385e-02  2.0289128869949394e-02  2.0476728828484343e-02  2.0228628840160370e-02  1.9447020468557247e-02  1.8975193123309277e-02  1.8223684755388842e-02  1.7304422020108533e-02  1.6214828881701247e-02  1.4937002109529671e-02  1.3548625154968090e-02  1.1982132334917552e-02  1.0277950259206832e-02  8.4535229460773447e-03  6.4993439716756942e-03  4.4693358229227018e-03  2.3796703659378373e-03  2.5408646160195484e-04  -1.8773190311833663e-03  -3.9800615598887283e-03  -6.0373373398813490e-03  -8.0100504151138386e-03  -9.8579073620208985e-03  -1.1581823449387671e-02  -1.3141626297315677e-02  -1.4563159689891305e-02  -1.5852290446630318e-02  -1.6956746815114412e-02  -1.7889095022735783e-02  -1.8635082079948084e-02  -1.9562951908531488e-02  -1.9973402270769686e-02  -1.9910668498443519e-02  -2.0405973915812916e-02  -2.0019881200020066e-02  -2.0352316377989149e-02  -1.9399631446193388e-02  -1.8701714085236600e-02  -1.8222784992122189e-02  -1.7504963038034702e-02  -1.6327756248677886e-02  -1.4241397435888512e-02  -1.2960806745253366e-02  -1.1451309501660263e-02  -9.0179500713074463e-03  -6.1472481675553048e-03  -2.7795458414915110e-03  -2.1714608047588522e-06  7.4952415797709256e-04  1.1945540359589015e-03  3.2267557802029176e-04  -5.2441780618017148e-05  -1.7266639582726146e-04  -6.1039153174554335e-05  4.1253116651920267e-04  5.6804018382448386e-04  3.8954495448655064e-04  4.9969921512302490e-04  1.0232006234916688e-03  1.0661523978817776e-03  1.1756060556945345e-03  1.2071627636508740e-03  1.1449914366368167e-03  1.2071480516496554e-03  1.4219127769125334e-03  1.4254053340822773e-03  1.4852696262584548e-03  1.4745293916877047e-03  1.4156627280580059e-03  1.5911702190607041e-03  1.4670988609844506e-03  1.1952546254054533e-03  1.3048688719065474e-03  8.9529872244082330e-04  1.0683320239159922e-03  9.3643978266127353e-04  8.7240803456859492e-04  7.1021881603438057e-04  7.2028889631534879e-04  4.4505120234453004e-04  4.3621370859849668e-04  3.3153424759775629e-04  1.3495103245562951e-04  -3.0488903091813706e-05  -1.5323754180020539e-04  -3.4819008113279597e-04  -4.8099509226371892e-04  -6.1733596785962924e-04  -8.0326432614121466e-04  -9.7530663119943213e-04  -1.2511016459031967e-03  -1.4197319543071711e-03  -1.4765946823320337e-03  -1.6184955468323389e-03  -1.8311386443478261e-03  -1.9178920745937500e-03  -2.1758035623966020e-03  -2.3765858875306471e-03  -2.3736728904659781e-03  -2.3949420660753732e-03  -2.6651298821463326e-03  -2.7667941766066316e-03  -2.8010367720017336e-03  -2.9442765877549749e-03  -2.9567222485504352e-03  -2.9563741514906823e-03  -3.1319920820686766e-03  -3.1665622681543199e-03  -3.0564303675497478e-03  -3.3013613901301986e-03  -3.4134865241456304e-03  -3.5095059061416196e-03  -3.5406535798654963e-03  -3.4805360085101733e-03  -3.5583288536725427e-03  -3.5099119654930012e-03  -3.3104517883183133e-03  -3.3446460881787175e-03  -3.2594380167550439e-03  -3.2298089112165144e-03  -3.2891072373572973e-03  -3.1770074619965343e-03  -3.0224131446255553e-03  -2.9158798001657593e-03  -2.7934302988533491e-03  -2.7888994278576153e-03  -2.5583194738125598e-03  -2.4673585631000256e-03  -2.4359307522576817e-03  -2.3659502085388957e-03  -2.1860233888999041e-03  -2.0877411929061218e-03  -2.0354071740303439e-03  -1.8777154045644261e-03  -1.6505536228401594e-03  -1.4515610846535783e-03  -1.3362031812688983e-03  -1.1767229193299048e-03  -1.0576711519449038e-03  -9.4191394567431084e-04  -7.4099732439488462e-04  -6.1542799497540999e-04  -4.6737812942287553e-04  -3.1426607648567294e-04  -1.5833425342052658e-04  -5.6424211721036637e-04  9.6115705826231782e-05  6.0771913926920907e-04  1.2216468312808144e-03  1.8487219072098598e-03  2.4644943449840771e-03  3.0479907237732653e-03  3.5128375359865954e-03  4.0711181068910692e-03  4.6163966830931515e-03  5.1387001446874386e-03  5.6174419920374408e-03  6.1522299387612349e-03  6.6694313321954881e-03  7.1553511999434653e-03  7.6527235675030673e-03  8.1090224913998397e-03  8.5809862174115632e-03  8.9887162772949933e-03  9.3925620186565383e-03  9.8013419944429653e-03  1.0179344575618410e-02  1.0501386030757719e-02  1.0828418020007245e-02  1.1114031977105318e-02  1.1383637023402437e-02  1.1634336683453534e-02  1.1851700083866618e-02  1.2052334894030327e-02  1.2258373561042519e-02  1.2406674293365534e-02  1.2509671260106239e-02  1.2609511549903758e-02  1.2702334339630684e-02  1.2776118876797036e-02  1.2804191279022385e-02  1.2763156988834245e-02  1.2746228866311351e-02  1.2755106645124963e-02  1.2653012746891911e-02  1.2568911983226226e-02  1.2426991876864557e-02  1.2241658086690007e-02  1.2032843431235323e-02  1.1816933679625949e-02  1.1545641881767328e-02  1.1248250860842149e-02  1.0943904460525533e-02  1.0566787069860171e-02  1.0169676218302883e-02  9.7374981838315167e-03  9.2870027037242845e-03  8.8243574591224411e-03  8.3018260932385662e-03  7.7790529047907266e-03  7.2098985602439590e-03  6.5530390966797745e-03  5.9045670155218367e-03  5.2194905607757646e-03  4.4664726921111375e-03  3.6855258186398905e-03  2.9099514831966052e-03  2.1224798496585896e-03  1.2894725138915351e-03  4.3808090482163340e-04  -4.1007409066282264e-04  -1.2458364125559247e-03  -2.2121440237820055e-03  -3.1359158913421741e-03  -3.9819384639862201e-03  -4.9139861439362270e-03  -5.6821039664573421e-03  -6.6348296052531775e-03  -7.5198332940451980e-03  -8.3919409618393326e-03  -9.3977754718017788e-03  -1.0345668224134609e-02  -1.1275570026599272e-02  -1.2039318229970390e-02  -1.3044125441981717e-02  -1.4004073210867439e-02  -1.4844900990131086e-02  -1.5777725527341059e-02  -1.6617815877884981e-02  -1.7339936587645197e-02  -1.8104609974597455e-02  -1.8773460806198652e-02  -1.9304929034619479e-02  -1.9713008315479601e-02  -2.0240015648128159e-02  -2.0709069413071771e-02  -2.1040297766694496e-02  -2.1357448520589531e-02  -2.1477202071407325e-02  -2.1593571815712660e-02  -2.1843974589900797e-02  -2.2093334342362499e-02  -2.2293987828261572e-02  -2.2492035481876893e-02  -2.2602423881061460e-02  -2.2726051349247951e-02  -2.2756265130023906e-02  -2.2830630052433746e-02  -2.2835719521876401e-02  -2.2814113359332051e-02  -2.2761894372496216e-02  -2.2648844150665044e-02  -2.2434869389951088e-02  -2.2226635956432751e-02  -2.1964531603398091e-02  -2.1680020713771050e-02  -2.1220090244122265e-02  -2.0634602254192672e-02  -2.0554942011843047e-02  -1.9862073941932720e-02  -1.9025899607570500e-02  -1.8239708472315781e-02  -1.7344556902273146e-02  -1.6386809444854149e-02  -1.5309019419031920e-02  -1.4292821946785765e-02  -1.3051573169972592e-02  -1.1552090397116809e-02  -1.0086241246184034e-02  -8.5801063737048888e-03  -7.0215178764635741e-03  -5.4793683443132507e-03  -3.7582653648983843e-03  -1.9852496397652127e-03  -2.0772461323774900e-04  1.5700005232661002e-03  3.3400591576890053e-03  5.1323958122228928e-03  6.6513154164005656e-03  8.2264149871117964e-03  9.7547558250483425e-03  1.1230463262885281e-02  1.2629273890587231e-02  1.4117706839980600e-02  1.5123658641484780e-02  1.6229271800317874e-02  1.7209239476749322e-02  1.8116761239424028e-02  1.8914309231475523e-02  1.9701172957062918e-02  2.0294205925749861e-02  2.0899949610083044e-02  2.1309966799969278e-02  2.1470676660551889e-02  2.1718590960174769e-02  2.1945543590628620e-02  2.2179655416605309e-02  2.2242658451754688e-02  2.2282507334761090e-02  2.2311237304012899e-02  2.2264260537312217e-02  2.2229354146940564e-02  2.2134017958972907e-02  2.1988129650281789e-02  2.1900289719508099e-02  2.1713994154245225e-02  2.1623237539133530e-02  2.1463179087352856e-02  2.1366730786990060e-02  2.1221611454082849e-02  2.1023321781135487e-02  2.0895145927242481e-02  2.0714234350594468e-02  2.0324974445919221e-02  1.9938862821555992e-02  1.9537419744933261e-02  1.9076284731957674e-02  1.8437193114429675e-02  1.7748067782445077e-02  1.6993585335558038e-02  1.6333254833043070e-02  1.5603703046716927e-02  1.4772407279075687e-02  1.3877675603222180e-02  1.3010617840905703e-02  1.2072857589126853e-02  1.1133591291988361e-02  1.0237293905058431e-02  9.3414639175160748e-03  8.4068751795663421e-03  7.4363969345412635e-03  6.5868525722406583e-03  5.6907269094824443e-03  4.7672345995446236e-03  3.8080225517890262e-03  3.0287308355443025e-03  2.0852782314107823e-03  1.1614013670370135e-03  2.9147049186614894e-04  -6.2687462400558703e-04  -1.4586274359595277e-03  -2.2954992099443838e-03  -3.1485801953608809e-03  -3.9477582930792579e-03  -4.6687970763831712e-03  -5.3677677547508849e-03  -6.0711186098745011e-03  -6.7690248477998973e-03  -7.4347218017816324e-03  -8.0552716592796197e-03  -8.6297761479409169e-03  -9.1843991749862280e-03  -9.5903867967908809e-03  -1.0038429080842369e-02  -1.0470019569044385e-02  -1.0878166894256481e-02  -1.1304299654953602e-02  -1.1661741930553093e-02  -1.1945575504547019e-02  -1.2205366565913433e-02  -1.2464972969186265e-02  -1.2698473947761990e-02  -1.2865051369899263e-02  -1.2995684447657479e-02  -1.3123737387163817e-02  -1.3261722048171727e-02  -1.3353627956473851e-02  -1.3419640850457382e-02  -1.3445711478698781e-02  -1.3444466359462242e-02  -1.3393405450837231e-02  -1.3280919420769546e-02  -1.3120004985500906e-02  -1.3024613120924315e-02  -1.2828575691955668e-02  -1.2628473553582497e-02  -1.2375634048423647e-02  -1.2170494147657232e-02  -1.1917629915985502e-02  -1.1625385521028681e-02  -1.1303322517993914e-02  -1.0925591531238831e-02  -1.0563082539556604e-02  -1.0158584886294425e-02  -9.7388812689377120e-03  -9.3305338995339163e-03  -8.8740932433804803e-03  -8.4379036960377379e-03  -7.9334978249095099e-03  -7.4380487846392859e-03  -6.8929811806502381e-03  -6.3766505954653361e-03  -5.8304131461472657e-03  -5.3034624078018523e-03  -4.7469505329561842e-03  -4.1658161788096911e-03  -3.6122555191314418e-03  -3.0214256198508073e-03  -2.4050615346681301e-03  -1.8053635123494323e-03  -1.1943305172481184e-03  4.8275917575225505e-05  -8.1166154948062851e-04  9.1963760483867020e-04  -1.4697926950871512e-03  1.3381426067670585e-03  -1.6462909756233160e-03  1.7159311046862293e-03  -1.5083299265045661e-03  1.9389784813256179e-03  -1.1583926620198134e-03  1.7053037261238924e-03  -1.2050936430266143e-03  1.7989857080351894e-03  -9.7456988730881854e-04  1.3826405047357580e-03  -1.1091618810239610e-03  2.4540535758231807e-03  -2.7647166247193791e-03  5.9014105465069506e-05  3.1835070506449075e-03  -1.8507444462625325e-05  2.2169801563193047e-04  -6.0651916399593686e-05  -2.0973107052677403e-03  5.8575732775534711e-03  2.3220340255424047e-03  -5.6067740273837464e-03  -2.6647736335331882e-03  -1.8861313255179343e-04  2.5496063228021466e-04  -8.6558521660071198e-03  2.7273309641926871e-03  9.1853931250765932e-03  4.0389567154723429e-05  -5.7746873074481241e-05  -1.0638028751659478e-02  1.0894610954490257e-02  4.6569012449542483e-05  -1.7697511034331795e-03  4.1047901973367465e-04  -3.9313823570127075e-04  2.9749929588859727e-04  4.7103520447294296e-05  1.0262399088118373e-04  6.5658244016216145e-04  -1.1714838479318776e-02  1.0958050425507968e-02  8.7042656817995837e-04  -6.7982160000600511e-04  8.4146312891525052e-04  -7.8724403465995176e-04  -3.4299090007957142e-04  4.1839214056467266e-04  -1.0583484857838111e-04  7.5983723217954132e-03  4.3199402656422430e-03  -7.2960793500358796e-05  7.9491522486911811e-04  -8.0542293469839982e-04  1.1274620438953425e-02  -1.1431861690940157e-02  -4.0976491129317101e-03  -7.3264089039655686e-03  1.0676623783396604e-02  -1.0235580806929510e-02  -1.1939234517777305e-02  -2.9372085787238530e-04  5.3190929473195499e-04  1.2221758729269424e-03  6.8960671211821590e-04  -2.2228461165061868e-03  9.5895592276795619e-03  -1.0065821069112003e-02  8.9401544402300873e-03  -5.6572592995037148e-04  1.1352524853600960e-02  4.6552395440318034e-03  -1.1596044572865034e-03  5.3255927420019645e-04  3.9458712859706882e-04  -3.9811649594925530e-04  4.2209141399979076e-04  -1.1194415839664929e-02  -3.6220311345063367e-04  -5.8959985933278365e-04  -4.5459880292244180e-03  7.0215186223423339e-03  -7.7965218787335562e-03  -1.6437841735157828e-03  -4.9656215170948914e-04  -1.2169455317712170e-02  1.8358998325886202e-03  1.0309370269647091e-02  1.2971749174589657e-03  1.0838948431167006e-02  8.3556541710889739e-05  1.6891952295808391e-04  2.0056867237139443e-03  6.4890463127332556e-04  -1.8797356169225087e-03  -1.0462143760155430e-02  2.2767574959931417e-04  7.9803861578652967e-04  -1.9235754201155913e-04  -4.5753445073545597e-03  -1.0904817980269036e-03  -5.1216922966408260e-04  -9.3566450715972665e-04  2.7488236293491479e-03  1.3016985378973365e-03  -1.3678698787329205e-03  9.7319379813407838e-04  4.6711197710709227e-04  1.5178327298297380e-02  -9.6492608933028082e-03  -1.6009580165546328e-04  1.1333841215990467e-04  -2.5444079129367298e-04  1.4162830982444013e-03  5.5514739522261863e-03  -1.5739969847598813e-03  -2.6325743316766518e-04  9.0875576627918309e-06  5.5438447851735686e-03  1.0827039328174480e-03  7.8137075808301371e-03  -1.5881426924718074e-02  2.4413531602387719e-04  7.9911349416180940e-05  -1.8468548048735996e-03  -2.5068789994751569e-03  -1.8100873180170712e-04  1.0180027088976462e-03  5.9854447564047959e-04  -1.0604016543212659e-03  1.0013804594985447e-04  1.5744064949009579e-03  3.2527717383431941e-03  1.6357961916782571e-02  2.8407317588889267e-04  -1.5855365784490818e-03  -1.4195955949485226e-03  8.6230234067948101e-03  1.3535562855928247e-03  -4.9418467901889028e-03  -6.3179793200825191e-03  -3.5046907790093831e-05  2.9528881812374711e-03  -4.3392668508744842e-04  1.8153259781179883e-03  -5.1396680266129705e-04  1.5315865806996060e-03  2.2412486969245634e-04  1.7319813648212258e-03  -5.0592586033859144e-04  -1.3953679124535212e-04  6.6874187230353587e-03  6.3602693987177788e-04  -1.5971185641739083e-03  -1.6826709950190034e-03  5.4372175803554302e-04  -6.1877029037659054e-04  3.2606169688552717e-03  -6.7033157086064925e-03  7.9682114319027282e-03  -1.7923359447916494e-03  -8.2192122538116592e-03  -9.1336767599342651e-03  5.4287323146152294e-04  2.0368710392677431e-03  4.5471505429104048e-03  -7.2840868707912997e-03  -1.7591007050150474e-03  -4.7883026759243808e-04  -1.8094332136688838e-02  -9.7349218282389782e-05  1.4220784388992421e-03  -1.2682595631311794e-03  6.1536817198811680e-03  1.1720315358223442e-02  -1.3782739653648455e-03  -1.4819263421374635e-03  7.5608850858996173e-04  -1.1275562450052614e-02  -1.0769245449913784e-02  1.4522186046679419e-03  -2.0142773246356119e-03  1.1146342638061323e-02  1.0639065136727350e-02  -1.4728297762205587e-03  1.7893301978071378e-02  3.1510466360961048e-04  1.3994579674617936e-03  9.6881740695488067e-03  -1.1508465777711739e-03  -1.0404347954002828e-03  -4.7168851998316097e-04  8.4644513780902722e-03  2.7451764981047126e-03  -3.6863516302308822e-04  2.1283666307309091e-05  -2.3884308039727421e-03  -1.2270525516484563e-02  -1.9239761610877308e-02  9.7444736463711545e-04  -6.5682024854255821e-03  3.8087133169488843e-04  7.0015471438339477e-03  -2.3162005548804381e-03  3.3177102797373403e-04  4.9519226073890341e-03  1.1834575259333796e-02  1.2142014389252356e-03  1.1505654146419517e-03  -6.2199488656995841e-05  3.4156301830283778e-04  3.0201673937499062e-03  -6.6737256493314759e-03  -7.9601216913503109e-04  1.8748768984096074e-02  -7.8654859959812595e-03  -1.0599845255832786e-03  -1.1164063286624134e-03  8.0152968755073817e-04  8.9715064261210620e-04  1.0124281297916541e-04  1.4238020938541988e-03  4.3294047020307922e-03  -6.1506224421915556e-03  -6.4005866964416307e-03  -4.9289523156787949e-04  -1.2170469220977906e-02  -3.9292036780741732e-03  -9.8308852016465269e-04  -3.9172810290781389e-05  -3.0866883191058329e-04  -1.0565665965498606e-04  1.1930707848219230e-03  -4.4219676373623062e-04  -1.9519413425244023e-02  7.6892803736409538e-03  -6.9892285154928881e-03  -1.0099203416267553e-02  1.6720948032740207e-03  3.0356076646731445e-04  7.7559542480676842e-03  1.4187134984375359e-03  -9.8728323603093898e-04  -7.4230887184343532e-03  -9.3047383380273413e-04  1.1800218878108800e-02  -1.6311702085330258e-03  1.9160856343351577e-02  7.5130879166873514e-04  -1.5889354239520452e-03  8.4658078507004607e-04  2.1865456087672843e-04  -4.3061573697043457e-04  9.9715269886191979e-04  -3.0746866236101896e-03  -6.2563121649832380e-04  -8.2978302058804164e-04  7.5193082470209236e-04  8.3716126729178799e-04  -1.9597691983128791e-02  1.7421005287321912e-03  1.0567152523273955e-02  1.3114650368203915e-03  1.5825270251328873e-03  -1.2080569970249299e-02  -1.2642179011408414e-02  9.0035022725280835e-03  9.1706216326572828e-03  1.4878856085903439e-03  -3.2661923930824123e-03  -3.8073667058752557e-04  -2.6981816144886488e-03  -1.1654581911440281e-04  -2.2577300917848601e-04  -7.4655043028243730e-04  7.3861221528137588e-04  1.9718087795750363e-03  -4.0682010465223464e-04  -1.6209339351094035e-03  -1.1550036298815456e-02  -2.0992308764724260e-03  -1.0044779522506198e-02  1.9654217767429649e-02  2.3670323454243785e-05  -1.8188295100365792e-04  8.9222785045440147e-03  9.2981692793654409e-04  -1.1108314301061413e-02  -8.6355447165535647e-04  1.1572372084960366e-02  1.9570047695018698e-03  -2.6397855144060819e-03  2.8199912383269145e-04  -7.2269035898921523e-03  1.1861863418495476e-02  2.802534409