<?xml version="1.0"?>
<VTKFile type="UnstructuredGrid"  version="0.1"  >
<UnstructuredGrid>
<Piece  NumberOfPoints="3914" NumberOfCells="6504">
<Points>
<DataArray  type="Float64"  NumberOfComponents="3"  format="ascii">1.25 0 0  1.249623523370255 0.03067653565364036 0  1.248494320256466 0.06133459290927252 0  1.246613070848363 0.09195570449958429 0  1.243980908340246 0.1225214254119508 0  1.240599418248387 0.1530133439990203 0  1.236470637455976 0.1834130930692022 0  1.231597052986177 0.2137023609503765 0  1.225981600504038 0.2438629025201603 0  1.219627662548161 0.2738765501960873 0  1.21253906649318 0.3037252248790798 0  1.2047200822443 0.333390946843623 0  1.196175419665261 0.3628558465680779 0  1.186910225741296 0.3921021754986144 0  1.176930081478776 0.4211123167402751 0  1.166240998543424 0.4498687956687352 0  1.154849415639108 0.4783542904563622 0  1.142762194629413 0.5065516425062373 0  1.129986616404304 0.5344438667878526 0  1.116530376494394 0.5620141620682582 0  1.102401580435444 0.5892459210324971 0  1.087608738885889 0.61612274028723 0  1.07216076250034 0.642628430241527 0  1.056066956562134 0.6687470248588714 0  1.039337015378182 0.6944627912745027 0  1.02198101643948 0.7197602392723067 0  1.004009414350806 0.7446241306155417 0  0.9854330345332579 0.7690394882257835 0  0.9662630667034212 0.7929916052045569 0  0.9465110581331058 0.8164660536922209 0  0.9261889066936989 0.8394486935587729 0  0.9053088536893338 0.8619256809213336 0  0.8838834764831844 0.8838834764831843 0  0.8619256809213337 0.9053088536893337 0  0.8394486935587729 0.9261889066936989 0  0.8164660536922209 0.9465110581331055 0  0.7929916052045569 0.9662630667034212 0  0.7690394882257835 0.9854330345332578 0  0.7446241306155419 1.004009414350806 0  0.7197602392723067 1.02198101643948 0  0.6944627912745028 1.039337015378182 0  0.6687470248588716 1.056066956562134 0  0.642628430241527 1.07216076250034 0  0.6161227402872301 1.087608738885889 0  0.5892459210324973 1.102401580435444 0  0.5620141620682583 1.116530376494394 0  0.5344438667878527 1.129986616404304 0  0.5065516425062373 1.142762194629413 0  0.4783542904563623 1.154849415639108 0  0.4498687956687353 1.166240998543424 0  0.4211123167402751 1.176930081478776 0  0.3921021754986145 1.186910225741296 0  0.3628558465680779 1.196175419665261 0  0.333390946843623 1.2047200822443 0  0.30372522487908 1.21253906649318 0  0.2738765501960872 1.219627662548161 0  0.2438629025201604 1.225981600504038 0  0.2137023609503767 1.231597052986177 0  0.1834130930692022 1.236470637455976 0  0.1530133439990203 1.240599418248387 0  0.122521425411951 1.243980908340246 0  0.09195570449958432 1.246613070848363 0  0.06133459290927266 1.248494320256466 0  0.03067653565364033 1.249623523370255 0  7.654042494670958e-17 1.25 0  -0.03067653565364018 1.249623523370255 0  -0.06133459290927251 1.248494320256466 0  -0.09195570449958416 1.246613070848363 0  -0.1225214254119508 1.243980908340246 0  -0.1530133439990202 1.240599418248387 0  -0.1834130930692021 1.236470637455976 0  -0.2137023609503766 1.231597052986177 0  -0.2438629025201602 1.225981600504038 0  -0.2738765501960871 1.219627662548161 0  -0.3037252248790798 1.21253906649318 0  -0.3333909468436229 1.2047200822443 0  -0.3628558465680777 1.196175419665261 0  -0.3921021754986143 1.186910225741296 0  -0.4211123167402749 1.176930081478776 0  -0.4498687956687352 1.166240998543424 0  -0.4783542904563621 1.154849415639108 0  -0.5065516425062372 1.142762194629413 0  -0.5344438667878524 1.129986616404304 0  -0.5620141620682584 1.116530376494394 0  -0.5892459210324972 1.102401580435444 0  -0.61612274028723 1.087608738885889 0  -0.642628430241527 1.07216076250034 0  -0.6687470248588713 1.056066956562134 0  -0.6944627912745025 1.039337015378182 0  -0.7197602392723067 1.02198101643948 0  -0.7446241306155417 1.004009414350806 0  -0.7690394882257834 0.9854330345332579 0  -0.7929916052045567 0.9662630667034213 0  -0.8164660536922207 0.9465110581331059 0  -0.8394486935587731 0.9261889066936988 0  -0.8619256809213337 0.9053088536893337 0  -0.8838834764831843 0.8838834764831844 0  -0.9053088536893334 0.8619256809213338 0  -0.9261889066936986 0.8394486935587732 0  -0.9465110581331058 0.8164660536922208 0  -0.9662630667034212 0.7929916052045569 0  -0.9854330345332578 0.7690394882257836 0  -1.004009414350806 0.7446241306155419 0  -1.02198101643948 0.7197602392723068 0  -1.039337015378182 0.6944627912745027 0  -1.056066956562134 0.6687470248588714 0  -1.07216076250034 0.6426284302415273 0  -1.087608738885889 0.6161227402872302 0  -1.102401580435444 0.5892459210324973 0  -1.116530376494394 0.5620141620682586 0  -1.129986616404304 0.5344438667878525 0  -1.142762194629413 0.5065516425062374 0  -1.154849415639108 0.4783542904563624 0  -1.166240998543424 0.4498687956687354 0  -1.176930081478776 0.4211123167402754 0  -1.186910225741296 0.3921021754986143 0  -1.196175419665261 0.362855846568078 0  -1.2047200822443 0.3333909468436231 0  -1.21253906649318 0.3037252248790801 0  -1.219627662548161 0.2738765501960876 0  -1.225981600504038 0.2438629025201608 0  -1.231597052986177 0.2137023609503765 0  -1.236470637455976 0.1834130930692023 0  -1.240599418248387 0.1530133439990204 0  -1.243980908340246 0.122521425411951 0  -1.246613070848363 0.09195570449958466 0  -1.248494320256466 0.06133459290927246 0  -1.249623523370255 0.03067653565364041 0  -1.25 1.530808498934192e-16 0  -1.249623523370255 -0.0306765356536401 0  -1.248494320256466 -0.06133459290927215 0  -1.246613070848363 -0.09195570449958437 0  -1.243980908340246 -0.1225214254119507 0  -1.240599418248387 -0.1530133439990201 0  -1.236470637455976 -0.183413093069202 0  -1.231597052986177 -0.2137023609503762 0  -1.225981600504038 -0.2438629025201605 0  -1.219627662548161 -0.2738765501960873 0  -1.21253906649318 -0.3037252248790798 0  -1.2047200822443 -0.3333909468436228 0  -1.196175419665261 -0.3628558465680776 0  -1.186910225741296 -0.392102175498614 0  -1.176930081478776 -0.4211123167402752 0  -1.166240998543424 -0.4498687956687352 0  -1.154849415639108 -0.4783542904563621 0  -1.142762194629413 -0.5065516425062371 0  -1.129986616404304 -0.5344438667878523 0  -1.116530376494394 -0.5620141620682583 0  -1.102401580435444 -0.5892459210324971 0  -1.087608738885889 -0.6161227402872299 0  -1.07216076250034 -0.6426284302415269 0  -1.056066956562134 -0.6687470248588712 0  -1.039337015378182 -0.6944627912745025 0  -1.02198101643948 -0.7197602392723067 0  -1.004009414350806 -0.7446241306155416 0  -0.9854330345332579 -0.7690394882257834 0  -0.9662630667034213 -0.7929916052045566 0  -0.946511058133106 -0.8164660536922207 0  -0.9261889066936989 -0.8394486935587731 0  -0.9053088536893338 -0.8619256809213336 0  -0.8838834764831847 -0.8838834764831843 0  -0.8619256809213338 -0.9053088536893334 0  -0.8394486935587733 -0.9261889066936986 0  -0.8164660536922214 -0.9465110581331053 0  -0.7929916052045574 -0.9662630667034209 0  -0.7690394882257841 -0.9854330345332574 0  -0.7446241306155414 -1.004009414350806 0  -0.7197602392723066 -1.02198101643948 0  -0.6944627912745027 -1.039337015378182 0  -0.6687470248588716 -1.056066956562134 0  -0.6426284302415273 -1.07216076250034 0  -0.6161227402872302 -1.087608738885889 0  -0.5892459210324973 -1.102401580435444 0  -0.5620141620682586 -1.116530376494394 0  -0.5344438667878531 -1.129986616404304 0  -0.506551642506238 -1.142762194629413 0  -0.4783542904563629 -1.154849415639108 0  -0.4498687956687349 -1.166240998543424 0  -0.4211123167402749 -1.176930081478776 0  -0.3921021754986143 -1.186910225741296 0  -0.3628558465680781 -1.196175419665261 0  -0.3333909468436231 -1.2047200822443 0  -0.3037252248790802 -1.21253906649318 0  -0.2738765501960876 -1.219627662548161 0  -0.2438629025201608 -1.225981600504038 0  -0.2137023609503771 -1.231597052986176 0  -0.1834130930692029 -1.236470637455976 0  -0.1530133439990199 -1.240599418248387 0  -0.1225214254119506 -1.243980908340246 0  -0.09195570449958419 -1.246613070848363 0  -0.06133459290927254 -1.248494320256466 0  -0.03067653565364049 -1.249623523370255 0  -2.296212748401287e-16 -1.25 0  0.03067653565364003 -1.249623523370255 0  0.06133459290927207 -1.248494320256466 0  0.09195570449958373 -1.246613070848363 0  0.1225214254119501 -1.243980908340246 0  0.1530133439990195 -1.240599418248387 0  0.1834130930692024 -1.236470637455976 0  0.2137023609503766 -1.231597052986177 0  0.2438629025201604 -1.225981600504038 0  0.2738765501960872 -1.219627662548161 0  0.3037252248790797 -1.21253906649318 0  0.3333909468436227 -1.2047200822443 0  0.3628558465680776 -1.196175419665261 0  0.3921021754986139 -1.186910225741296 0  0.4211123167402745 -1.176930081478776 0  0.4498687956687345 -1.166240998543424 0  0.4783542904563625 -1.154849415639108 0  0.5065516425062375 -1.142762194629413 0  0.5344438667878527 -1.129986616404304 0  0.5620141620682583 -1.116530376494394 0  0.589245921032497 -1.102401580435444 0  0.6161227402872298 -1.087608738885889 0  0.6426284302415269 -1.07216076250034 0  0.6687470248588712 -1.056066956562134 0  0.6944627912745023 -1.039337015378182 0  0.7197602392723061 -1.02198101643948 0  0.7446241306155411 -1.004009414350806 0  0.7690394882257838 -0.9854330345332576 0  0.792991605204557 -0.9662630667034211 0  0.8164660536922209 -0.9465110581331058 0  0.8394486935587729 -0.9261889066936989 0  0.8619256809213336 -0.9053088536893338 0  0.8838834764831842 -0.8838834764831847 0  0.9053088536893333 -0.8619256809213339 0  0.9261889066936986 -0.8394486935587733 0  0.9465110581331053 -0.8164660536922214 0  0.9662630667034209 -0.7929916052045574 0  0.9854330345332574 -0.7690394882257843 0  1.004009414350806 -0.7446241306155416 0  1.02198101643948 -0.7197602392723066 0  1.039337015378182 -0.6944627912745027 0  1.056066956562134 -0.6687470248588716 0  1.07216076250034 -0.6426284302415274 0  1.087608738885889 -0.6161227402872304 0  1.102401580435443 -0.5892459210324974 0  1.116530376494394 -0.5620141620682587 0  1.129986616404304 -0.5344438667878532 0  1.142762194629413 -0.50655164250623
[...]
<PointData  Scalars="f_5586109"> 
<DataArray  type="Float64"  Name="f_5586109"  format="ascii">1.0000109451878860e+00  1.0000963577384678e+00  1.0001775462193214e+00  1.0002515013770406e+00  1.0003356457870696e+00  1.0004229459832408e+00  1.0004847751196280e+00  1.0005622330808004e+00  1.0006224753387416e+00  1.0006938513175916e+00  1.0007790818098838e+00  1.0008393173771506e+00  1.0009140340925149e+00  1.0009958409427218e+00  1.0010696179468164e+00  1.0010767894472088e+00  1.0011173516590346e+00  1.0012111317621653e+00  1.0012784214010710e+00  1.0013309024620940e+00  1.0013170108504679e+00  1.0013212043126949e+00  1.0013905710082733e+00  1.0013848584970162e+00  1.0014265259928574e+00  1.0014413743928241e+00  1.0015020276618698e+00  1.0015828366031714e+00  1.0016186631147719e+00  1.0015701532072285e+00  1.0015954442547650e+00  1.0016233466677509e+00  1.0015898162934362e+00  1.0015057497676978e+00  1.0014824422704973e+00  1.0014516479650986e+00  1.0013831304825722e+00  1.0014417297926164e+00  1.0013463862856962e+00  1.0013168137590187e+00  1.0013446082213726e+00  1.0013007416282849e+00  1.0012271388638865e+00  1.0012100505590475e+00  1.0011958290551879e+00  1.0011195806948854e+00  1.0010645362731434e+00  1.0010480474271275e+00  1.0009766638822228e+00  1.0008640319172861e+00  1.0007632791267043e+00  1.0007303858374024e+00  1.0006813931086391e+00  1.0006485108368013e+00  1.0005647481254165e+00  1.0004613124542794e+00  1.0004235361114244e+00  1.0003362783088994e+00  1.0002589030388047e+00  1.0001714298014144e+00  1.0000643533884332e+00  9.9996174216676414e-01  9.9989529674689726e-01  9.9979844513797334e-01  9.9973178859578693e-01  9.9967468907338819e-01  9.9959138382170432e-01  9.9952297509993759e-01  9.9947501007691730e-01  9.9939167846451671e-01  9.9931019906207774e-01  9.9927168613582495e-01  9.9926454594930325e-01  9.9924608735059273e-01  9.9916581646489133e-01  9.9942103337952226e-01  9.9925844275872910e-01  9.9925046656360217e-01  9.9947657836661818e-01  9.9945472403424895e-01  9.9921117334859344e-01  9.9939562485600697e-01  9.9942889378242594e-01  9.9928282921084255e-01  9.9947807310637915e-01  9.9951778664285129e-01  9.9944261611043794e-01  9.9932745737172946e-01  9.9931570618522703e-01  9.9949969452708065e-01  9.9925225664696171e-01  9.9969758775382200e-01  9.9872264021003998e-01  9.9931474696758671e-01  9.9898933398775469e-01  9.9999798172783794e-01  9.9981000426289968e-01  9.9946696284960213e-01  1.0004867520999212e+00  1.0029531648330838e+00  1.0046088115793388e+00  1.0053802775639786e+00  1.0060897263083275e+00  1.0066673761448397e+00  1.0076138732555622e+00  1.0080481116666047e+00  1.0084771606832923e+00  1.0089025800915914e+00  1.0092777115798073e+00  1.0094885131660438e+00  1.0101185476224723e+00  1.0098319222153256e+00  1.0099462798136305e+00  1.0103392805260401e+00  1.0102810052517399e+00  1.0100223252516523e+00  1.0095444627218677e+00  1.0091320984511654e+00  1.0086724043687549e+00  1.0082153140534740e+00  1.0075826004575406e+00  1.0068234958450424e+00  1.0060981077450406e+00  1.0053270713736220e+00  1.0045092434744995e+00  1.0034940075493775e+00  1.0024390126653899e+00  1.0014672490805270e+00  1.0005142630069523e+00  9.9954921504804384e-01  9.9856313809545749e-01  9.9746427840963803e-01  9.9643836347098125e-01  9.9558513515490432e-01  9.9475870929717491e-01  9.9397714573796292e-01  9.9313740979086385e-01  9.9244358561515067e-01  9.9191041997060592e-01  9.9140867580594971e-01  9.9097598884519411e-01  9.9050422370360780e-01  9.9030666042351390e-01  9.9062560186059601e-01  9.9026737875292381e-01  9.9067928315555909e-01  9.9034226824402138e-01  9.9102536192360879e-01  9.9140371597850618e-01  9.9160265408617410e-01  9.9189281770290549e-01  9.9237128503986038e-01  9.9325722557812435e-01  9.9378522401730629e-01  9.9448378407475591e-01  9.9560488449073981e-01  9.9719166531775050e-01  9.9605085989035447e-01  9.9989586522044438e-01  1.0007700318147059e+00  1.0013240049511765e+00  1.0013384409720381e+00  1.0006702772352354e+00  1.0011631032995840e+00  1.0003715907698785e+00  1.0007695247784871e+00  1.0005091657981853e+00  1.0006988101814676e+00  1.0005696219625335e+00  1.0006331396795036e+00  1.0005144516062177e+00  1.0005225853696145e+00  1.0007342338873861e+00  1.0005572486868775e+00  1.0006227491377278e+00  1.0008626613193659e+00  1.0006174015886860e+00  1.0005643217052929e+00  1.0007814911945911e+00  1.0007765167351739e+00  1.0006390790021520e+00  1.0007046248841045e+00  1.0008252988122095e+00  1.0006382069429911e+00  1.0008419828938089e+00  1.0008079358976645e+00  1.0007159593656332e+00  1.0006949983813280e+00  1.0006297476663244e+00  1.0005420286017634e+00  1.0004786833185555e+00  1.0004006726404946e+00  1.0003307779116331e+00  1.0002602151470348e+00  1.0001649055472583e+00  1.0000865318904366e+00  9.9995873188323237e-01  9.9989480559357291e-01  9.9982989005623568e-01  9.9975294491908551e-01  9.9966223979016144e-01  9.9950092186570150e-01  9.9939036013747728e-01  9.9934523235443162e-01  9.9927589962793117e-01  9.9916090354157250e-01  9.9912293779579942e-01  9.9900061172929189e-01  9.9888879185247803e-01  9.9887601104021662e-01  9.9887873051635945e-01  9.9874499013371187e-01  9.9866576332796597e-01  9.9865871704168263e-01  9.9858805892797575e-01  9.9856074307674303e-01  9.9857828122645231e-01  9.9849028736301060e-01  9.9844551410075222e-01  9.9851748876402557e-01  9.9838879696807881e-01  9.9832559461279036e-01  9.9827691949733788e-01  9.9824728548231811e-01  9.9828466084620537e-01  9.9824215718678766e-01  9.9825404742799562e-01  9.9837068631164982e-01  9.9835476273495083e-01  9.9839741697922679e-01  9.9841267150970847e-01  9.9836838750814372e-01  9.9840772778750941e-01  9.9849264070690136e-01  9.9854387915755127e-01  9.9861335972736309e-01  9.9860790960157952e-01  9.9873233015583263e-01  9.9877905157722235e-01  9.9878927540607410e-01  9.9880709059392980e-01  9.9890774642678737e-01  9.9896888959198549e-01  9.9897812425816457e-01  9.9905419828573883e-01  9.9916848126981073e-01  9.9927478308843398e-01  9.9932668632183452e-01  9.9941470575845581e-01  9.9947851361106987e-01  9.9951771603276951e-01  9.9963232904164656e-01  9.9969767849617575e-01  9.9976701125754741e-01  9.9983377532152928e-01  9.9991437746846290e-01  9.9972677829533185e-01  1.0000324829213363e+00  1.0003208265601824e+00  1.0006447844219484e+00  1.0009431359000280e+00  1.0012628597570159e+00  1.0015335042081510e+00  1.0018026526858610e+00  1.0021011584255559e+00  1.0023807860674301e+00  1.0026422725465061e+00  1.0029254626269422e+00  1.0031798061014769e+00  1.0034527399375548e+00  1.0036985398720497e+00  1.0039499886301015e+00  1.0041903302159745e+00  1.0044197832876054e+00  1.0046380179389067e+00  1.0048289710918519e+00  1.0050165325247926e+00  1.0052183349352806e+00  1.0053763488108791e+00  1.0055102774187532e+00  1.0056539936107884e+00  1.0057731629605222e+00  1.0059132085052283e+00  1.0060393295663259e+00  1.0061307659761711e+00  1.0062372813815479e+00  1.0062902453199047e+00  1.0063492763752739e+00  1.0063996553795156e+00  1.0064181198700022e+00  1.0064406086258815e+00  1.0064366579945498e+00  1.0064463834868156e+00  1.0064368140018896e+00  1.0063955552471324e+00  1.0063338664074417e+00  1.0062823745297089e+00  1.0061763716711811e+00  1.0060974035773118e+00  1.0060014068137100e+00  1.0058856633811830e+00  1.0057335057030687e+00  1.0055722004824836e+00  1.0053978112218134e+00  1.0052085244112139e+00  1.0049994755691762e+00  1.0048187624461280e+00  1.0046159005410542e+00  1.0044006976922362e+00  1.0041757529753383e+00  1.0039324292361014e+00  1.0036325515545188e+00  1.0032879827249055e+00  1.0029503896777909e+00  1.0025990584456033e+00  1.0022126035616097e+00  1.0018143495930303e+00  1.0014189122073951e+00  1.0010250160452341e+00  1.0005924186777544e+00  1.0001607726084512e+00  9.9973479129121678e-01  9.9931294574193985e-01  9.9881642188457942e-01  9.9836246993783984e-01  9.9799777476800267e-01  9.9762765350046712e-01  9.9724153990780273e-01  9.9679278703137586e-01  9.9637435201173319e-01  9.9594448600965946e-01  9.9545679218569538e-01  9.9499045439689671e-01  9.9457691285694461e-01  9.9417370695981722e-01  9.9370178905129369e-01  9.9324032192219947e-01  9.9283240226837455e-01  9.9238403268208342e-01  9.9193989064197818e-01  9.9156348530637239e-01  9.9116202440027557e-01  9.9081478782504284e-01  9.9055017634260045e-01  9.9034935116685119e-01  9.9012404918427022e-01  9.8989512807225966e-01  9.8977760951298666e-01  9.8958641835273953e-01  9.8946396736563114e-01  9.8941508528659816e-01  9.8932101355185154e-01  9.8924206254101077e-01  9.8916108518944235e-01  9.8908173071011118e-01  9.8902323677157278e-01  9.8892964331298538e-01  9.8893286220118870e-01  9.8885923813964982e-01  9.8882759671653953e-01  9.8888562168155125e-01  9.8883454164292328e-01  9.8879305897232006e-01  9.8885204004181415e-01  9.8895083021260644e-01  9.8901036124816932e-01  9.8907590702076964e-01  9.8928805919667995e-01  9.8945883988874006e-01  9.8980012962938835e-01  9.8990089146043581e-01  9.9034885062745126e-01  9.9078996810271025e-01  9.9128825099181161e-01  9.9181138083025633e-01  9.9235046943795291e-01  9.9311738236373404e-01  9.9357796938779341e-01  9.9429126733759654e-01  9.9507250586715901e-01  9.9587187058280380e-01  9.9668463506276117e-01  9.9757860595372694e-01  9.9832061183037912e-01  9.9921830937741440e-01  1.0001428414324811e+00  1.0010652583920427e+00  1.0019660780697830e+00  1.0027367166515453e+00  1.0035965118241703e+00  1.0044258154708723e+00  1.0052324568376736e+00  1.0060155216882742e+00  1.0067266432219582e+00  1.0071762007613803e+00  1.0079196902835894e+00  1.0084408250519854e+00  1.0092519874093313e+00  1.0097666739883608e+00  1.0102097428172048e+00  1.0105893138418218e+00  1.0109161824119102e+00  1.0113267765835452e+00  1.0110518532822965e+00  1.0112293168978916e+00  1.0114305403747539e+00  1.0114271393150205e+00  1.0115430419335825e+00  1.0114727374299224e+00  1.0114249739744567e+00  1.0114760994392580e+00  1.0113984172832151e+00  1.0113377109411339e+00  1.0112557714159489e+00  1.0111533392289260e+00  1.0111160563139132e+00  1.0110137057017268e+00  1.0109642495765179e+00  1.0108826298030589e+00  1.0108089660970567e+00  1.0107078824026476e+00  1.0105763060686164e+00  1.0105105229681692e+00  1.0103402131270631e+00  1.0101290930265521e+00  1.0099818056986478e+00  1.0097942125687518e+00  1.0095810022407163e+00  1.0091788410268245e+00  1.0088195651272198e+00  1.0084772089915723e+00  1.0081632264377600e+00  1.0078053418288015e+00  1.0073466758019860e+00  1.0068351840532237e+00  1.0064259527345214e+00  1.0060298901171498e+00  1.0055197182949216e+00  1.0051017720617097e+00  1.0046854415374573e+00  1.0042397084950361e+00  1.0037756200542418e+00  1.0033897544847277e+00  1.0029541721271957e+00  1.0025503214948472e+00  1.0021441697925455e+00  1.0017853242103507e+00  1.0012710435991521e+00  1.0007961531286922e+00  1.0003580061328876e+00  9.9987656545037118e-01  9.9947421985426776e-01  9.9905881960968246e-01  9.9860672182314869e-01  9.9817854686511143e-01  9.9780746459017966e-01  9.9746942623153900e-01  9.9714163215030915e-01  9.9680559868806506e-01  9.9652474160050386e-01  9.9623247366918621e-01  9.9588473021321033e-01  9.9553070350779960e-01  9.9528699608946936e-01  9.9505613778707935e-01  9.9483385544225877e-01  9.9462799464634466e-01  9.9440668543092992e-01  9.9421562400895036e-01  9.9405475761650464e-01  9.9391449547835087e-01  9.9379474262715040e-01  9.9366553453692930e-01  9.9357170918573845e-01  9.9349677774744505e-01  9.9345901664370084e-01  9.9338301351978830e-01  9.9333141814892034e-01  9.9328972849005837e-01  9.9330894969383365e-01  9.9331266933991358e-01  9.9331388073148397e-01  9.9335105125342715e-01  9.9343998456154936e-01  9.9351605634020490e-01  9.9361900896461453e-01  9.9371870664440420e-01  9.9386452106207290e-01  9.9400068821306575e-01  9.9413945194991482e-01  9.9424723025069406e-01  9.9437614748697756e-01  9.9456118685492700e-01  9.9473186937359592e-01  9.9492759511442863e-01  9.9515028227405977e-01  9.9535555512603369e-01  9.9559615748644537e-01  9.9581303890393336e-01  9.9603813248736106e-01  9.9627127840904428e-01  9.9654214719691248e-01  9.9679635778046383e-01  9.9706576182776374e-01  9.9733789743353174e-01  9.9762681022204247e-01  9.9792672509334579e-01  9.9820932619896052e-01  9.9849547932419092e-01  9.9880955914374114e-01  9.9911340422716111e-01  9.9941549478789693e-01  1.0000073918524450e+00  9.9950468830593897e-01  1.0004894150305577e+00  9.9886764577874432e-01  1.0009003504710452e+00  9.9902125184469037e-01  1.0010183779584545e+00  9.9896192454445709e-01  1.0011027408506310e+00  9.9904510722780138e-01  1.0011565875674575e+00  9.9907810468077562e-01  1.0008927772318543e+00  9.9920735731715227e-01  1.0007890711852907e+00  9.9946068726064619e-01  1.0005300052980373e+00  9.9963669359786023e-01  1.0000013628416089e+00  1.0002333659104079e+00  9.9999772595239234e-01  1.0000768661448967e+00  1.0000058721181853e+00  9.9883831900190789e-01  1.0030186322140013e+00  1.0011643342787595e+00  9.9703331314492938e-01  1.0001431469388249e+00  9.9997372116274230e-01  1.0000815903238285e+00  9.9542970467948944e-01  9.9947562853855698e-01  1.0049881969387471e+00  9.9994429623803116e-01  1.0000520376213462e+00  9.9444098879245979e-01  1.0060522976125958e+00  1.0000253353677735e+00  1.0009476315671524e+00  1.0001943573287273e+00  9.9981772504531563e-01  1.0001728742731388e+00  9.9991785099847641e-01  1.0001289572724459e+00  1.0002981266106175e+00  9.9332993000181025e-01  1.0061569629677460e+00  9.9888815844643264e-01  9.9970367258994330e-01  1.0003747024082144e+00  9.9966424467633985e-01  1.0017870265322708e+00  1.0002719941810050e+00  9.9986875733991765e-01  1.0041051193076533e+00  1.0023278913780862e+00  9.9776480057272443e-01  1.0003192181745320e+00  9.9966064040616698e-01  1.0061417907101671e+00  9.9367646592720371e-01  9.9773423350137735e-01  9.9605098135596781e-01  1.0063717789560862e+00  9.9437717386928881e-01  9.9333548887148915e-01  9.9976888092786087e-01  1.0003171242931743e+00  1.0030533303683344e+00  1.0002602395778979e+00  9.9672600507468379e-01  1.0047074797664113e+00  9.9487965966889391e-01  1.0055388833367771e+00  9.9981559005689902e-01  1.0063995176694374e+00  1.0045098033617068e+00  9.9919136636488504e-01  1.0002489822656848e+00  1.0000810613395206e+00  9.9963282121788943e-01  1.0005590788221728e+00  9.9375895949385151e-01  9.9994637810240683e-01  9.9955480049889012e-01  9.9524144110280288e-01  1.0043434072432196e+00  9.9571656332530967e-01  9.9882854680402877e-01  9.9958118487634362e-01  9.9417741398985993e-01  1.0012117244304555e+00  1.0059906853831182e+00  1.0008227959941545e+00  1.0062854422106040e+00  9.9991965013034423e-01  1.0001887886388086e+00  1.0012338508112908e+00  1.0004886312652146e+00  9.9868883280282328e-01  9.9335081691197746e-01  1.0001040814163540e+00  1.0003866505555910e+00  9.9990512536411902e-01  9.9690180098738723e-01  9.9947984328410322e-01  9.9975629891708973e-01  9.9954664054763620e-01  1.0027339530931243e+00  1.0006220508891603e+00  9.9881207636899583e-01  1.0006291927780735e+00  1.0002306913593695e+00  1.0078458768257450e+00  9.9511307604518673e-01  9.9988318054174274e-01  1.0003909886875106e+00  9.9972175740312363e-01  1.0006759730053778e+00  1.0036785672354174e+00  9.9811775411631054e-01  9.9953596303294800e-01  1.0000049660194030e+00  1.0027968127643703e+00  1.0005272312447533e+00  1.0050105980445914e+00  9.9233201456318598e-01  1.0001409277284707e+00  1.0000516216865540e+00  9.9879918471230011e-01  9.9871094182981834e-01  9.9949344080314950e-01  1.0006621178443817e+00  1.0003669285982959e+00  9.9948341377872096e-01  1.0011354895792288e+00  1.0007349576277502e+00  1.0016621775491981e+00  1.0074079718506479e+00  1.0005116569505172e+00  9.9924468061215332e-01  9.9931274523789915e-01  1.0044132530265657e+00  1.0006245162862970e+00  9.9749156939533212e-01  9.9677132409600411e-01  1.0000120052577779e+00  1.0011116475471098e+00  9.9984490701923157e-01  1.0011676149736601e+00  9.9973199441075711e-01  1.0007264951095647e+00  1.0001257954857161e+00  1.0012837578617917e+00  9.9973238750171056e-01  9.9989515270871276e-01  1.0035438252034767e+00  1.0003033842530262e+00  9.9926076473702674e-01  9.9920587603913502e-01  1.0002798716678241e+00  9.9964115837590450e-01  1.0013752283924784e+00  9.9581572361068593e-01  1.0031270520346658e+00  9.9969296362525695e-01  9.9584864577763688e-01  9.9545010189751360e-01  1.0002826146955113e+00  1.0008618238927287e+00  1.0017763261075341e+00  9.9794342857049467e-01  9.9911948069354084e-01  1.0006538405774412e+00  9.9179631941519952e-01  9.9960900679087228e-01  1.0006660656804605e+00  9.9931276535059688e-01  1.0024444791985243e+00  1.0058578226287174e+00  9.9937205836448528e-01  9.9933914486173103e-01  1.0004440421987006e+00  9.9437682228595281e-01  9.9460902627750269e-01  1.0007826773083062e+00  9.9927700540598297e-01  1.0054725503687181e+00  1.0052686730073419e+00  9.9966564781247791e-01  1.0084799217660201e+00  9.9948177469349808e-01  1.0006530149205473e+00  1.0049307736607573e+00  9.9987652068919752e-01  9.9918976284715155e-01  9.9976817512947502e-01  1.0034853694746886e+00  1.0011046013904836e+00  9.9953066985172234e-01  1.0000137389785226e+00  9.9928834126530786e-01  9.9375865080643833e-01  9.9121988621798229e-01  1.0010029914482224e+00  9.9772798320254763e-01  1.0001751372437315e+00  1.0027654065393345e+00  9.9925061405305049e-01  1.0002693605382027e+00  1.0017433407685217e+00  1.0059292574923526e+00  1.0005471474974601e+00  1.0005000693484676e+00  9.9994683585352140e-01  1.0005572044522268e+00  1.0008802224854760e+00  9.9770522662614258e-01  9.9960637217074089e-01  1.0090920645140080e+00  9.9710084134165156e-01  9.9958360171481742e-01  9.9955153357908388e-01  9.9950556608957108e-01  1.0004396675194900e+00  1.0000488639952403e+00  1.0006968272189884e+00  1.0023225266369788e+00  9.9757271723760488e-01  9.9782002956789329e-01  1.0005487251629321e+00  9.9395373071560844e-01  9.9802072575852618e-01  9.9951418465371911e-01  1.0000967251613229e+00  9.9974015359612622e-01  1.0005136890836892e+00  1.0007304411448184e+00  9.9958620247518493e-01  9.9077731520981072e-01  1.0030203064046521e+00  9.9781000869408565e-01  9.9496455814945162e-01  1.0008086064007211e+00  1.0001392782538019e+00  1.0040740699221118e+00  1.0005666499438648e+00  9.9944282681158580e-01  9.9653910066167140e-01  9.9921076106801854e-01  1.0058560720644238e+00  9.9938660168709903e-01  1.0096144690613105e+00  1.0004508572493171e+00  9.9921935067064660e-01  1.0007783589282799e+00  1.0000501497608345e+00  9.9931329274889757e-01  1.0008852157173835e+00  9.9862106976965481e-01  9.9984704652486356e-01  9.9971545785404126e-01  1.0002672370962185e+00  1.0003332964652645e+00  9.9025092531203474e-01  1.0010901204556082e+00  1.0052513095327524e+00  1.0004585936922694e+00  1.0018163139329328e+00  9.9383339482990518e-01  9.9357331061625886e-01  1.0035880828486909e+00  1.0036117321297895e+00  1.0007271139593772e+00  9.9759241791595665e-01  9.9971303929911282e-01  9.9984191888693263e-01  1.0000064638623667e+00  9.9907245019913582e-01  1.0002554015253378e+00  9.9965562691830645e-01  1.0009531189376824e+00  9.9974645552928731e-01  1.0003226927157791e+00  9.9420180039121364e-01  9.9897169903708993e-01  9.9592985077275142e-01  1.0099591236236845e+00  9.9954683118956256e-01  1.0005816085178973e+00  1.0034499788439271e+00  1.0005468354436879e+00  9.9435315437036287e-01  9.9957665223399716e-01  1.0057796403224268e+00  1.0009362871279397e+00  1.0009220152948310e+00  1.0000572951944868e+00  9.9639597959244652e-01  1.0061105509078319e+00  9.9993828716463629e-01  1.0006473624796066e+00  9.9997215533340655e-01  1.0036395945462127e+00  1.0046219657326387e+00  9.9376659533179168e-01  1.0000520549269414e+00  9.9985742121738430e-01  9.9004376816864637e-01  1.0025533510813740e+00  9.9740823998275274e-01  9.9861173855887764e-01  9.9931661365102253e-01  9.9930241559530442e-01  1.0000697185522476e+00  9.9510358976064628e-01  9.9942373630401837e-01  1.0002656