<?xml version="1.0"?>
<VTKFile type="UnstructuredGrid"  version="0.1"  >
<UnstructuredGrid>
<Piece  NumberOfPoints="3832" NumberOfCells="6444">
<Points>
<DataArray  type="Float64"  NumberOfComponents="3"  format="ascii">1.25 0 0  1.249623523370255 0.03067653565364036 0  1.248494320256466 0.06133459290927252 0  1.246613070848363 0.09195570449958429 0  1.243980908340246 0.1225214254119508 0  1.240599418248387 0.1530133439990203 0  1.236470637455976 0.1834130930692022 0  1.231597052986177 0.2137023609503765 0  1.225981600504038 0.2438629025201603 0  1.219627662548161 0.2738765501960873 0  1.21253906649318 0.3037252248790798 0  1.2047200822443 0.333390946843623 0  1.196175419665261 0.3628558465680779 0  1.186910225741296 0.3921021754986144 0  1.176930081478776 0.4211123167402751 0  1.166240998543424 0.4498687956687352 0  1.154849415639108 0.4783542904563622 0  1.142762194629413 0.5065516425062373 0  1.129986616404304 0.5344438667878526 0  1.116530376494394 0.5620141620682582 0  1.102401580435444 0.5892459210324971 0  1.087608738885889 0.61612274028723 0  1.07216076250034 0.642628430241527 0  1.056066956562134 0.6687470248588714 0  1.039337015378182 0.6944627912745027 0  1.02198101643948 0.7197602392723067 0  1.004009414350806 0.7446241306155417 0  0.9854330345332579 0.7690394882257835 0  0.9662630667034212 0.7929916052045569 0  0.9465110581331058 0.8164660536922209 0  0.9261889066936989 0.8394486935587729 0  0.9053088536893338 0.8619256809213336 0  0.8838834764831844 0.8838834764831843 0  0.8619256809213337 0.9053088536893337 0  0.8394486935587729 0.9261889066936989 0  0.8164660536922209 0.9465110581331055 0  0.7929916052045569 0.9662630667034212 0  0.7690394882257835 0.9854330345332578 0  0.7446241306155419 1.004009414350806 0  0.7197602392723067 1.02198101643948 0  0.6944627912745028 1.039337015378182 0  0.6687470248588716 1.056066956562134 0  0.642628430241527 1.07216076250034 0  0.6161227402872301 1.087608738885889 0  0.5892459210324973 1.102401580435444 0  0.5620141620682583 1.116530376494394 0  0.5344438667878527 1.129986616404304 0  0.5065516425062373 1.142762194629413 0  0.4783542904563623 1.154849415639108 0  0.4498687956687353 1.166240998543424 0  0.4211123167402751 1.176930081478776 0  0.3921021754986145 1.186910225741296 0  0.3628558465680779 1.196175419665261 0  0.333390946843623 1.2047200822443 0  0.30372522487908 1.21253906649318 0  0.2738765501960872 1.219627662548161 0  0.2438629025201604 1.225981600504038 0  0.2137023609503767 1.231597052986177 0  0.1834130930692022 1.236470637455976 0  0.1530133439990203 1.240599418248387 0  0.122521425411951 1.243980908340246 0  0.09195570449958432 1.246613070848363 0  0.06133459290927266 1.248494320256466 0  0.03067653565364033 1.249623523370255 0  7.654042494670958e-17 1.25 0  -0.03067653565364018 1.249623523370255 0  -0.06133459290927251 1.248494320256466 0  -0.09195570449958416 1.246613070848363 0  -0.1225214254119508 1.243980908340246 0  -0.1530133439990202 1.240599418248387 0  -0.1834130930692021 1.236470637455976 0  -0.2137023609503766 1.231597052986177 0  -0.2438629025201602 1.225981600504038 0  -0.2738765501960871 1.219627662548161 0  -0.3037252248790798 1.21253906649318 0  -0.3333909468436229 1.2047200822443 0  -0.3628558465680777 1.196175419665261 0  -0.3921021754986143 1.186910225741296 0  -0.4211123167402749 1.176930081478776 0  -0.4498687956687352 1.166240998543424 0  -0.4783542904563621 1.154849415639108 0  -0.5065516425062372 1.142762194629413 0  -0.5344438667878524 1.129986616404304 0  -0.5620141620682584 1.116530376494394 0  -0.5892459210324972 1.102401580435444 0  -0.61612274028723 1.087608738885889 0  -0.642628430241527 1.07216076250034 0  -0.6687470248588713 1.056066956562134 0  -0.6944627912745025 1.039337015378182 0  -0.7197602392723067 1.02198101643948 0  -0.7446241306155417 1.004009414350806 0  -0.7690394882257834 0.9854330345332579 0  -0.7929916052045567 0.9662630667034213 0  -0.8164660536922207 0.9465110581331059 0  -0.8394486935587731 0.9261889066936988 0  -0.8619256809213337 0.9053088536893337 0  -0.8838834764831843 0.8838834764831844 0  -0.9053088536893334 0.8619256809213338 0  -0.9261889066936986 0.8394486935587732 0  -0.9465110581331058 0.8164660536922208 0  -0.9662630667034212 0.7929916052045569 0  -0.9854330345332578 0.7690394882257836 0  -1.004009414350806 0.7446241306155419 0  -1.02198101643948 0.7197602392723068 0  -1.039337015378182 0.6944627912745027 0  -1.056066956562134 0.6687470248588714 0  -1.07216076250034 0.6426284302415273 0  -1.087608738885889 0.6161227402872302 0  -1.102401580435444 0.5892459210324973 0  -1.116530376494394 0.5620141620682586 0  -1.129986616404304 0.5344438667878525 0  -1.142762194629413 0.5065516425062374 0  -1.154849415639108 0.4783542904563624 0  -1.166240998543424 0.4498687956687354 0  -1.176930081478776 0.4211123167402754 0  -1.186910225741296 0.3921021754986143 0  -1.196175419665261 0.362855846568078 0  -1.2047200822443 0.3333909468436231 0  -1.21253906649318 0.3037252248790801 0  -1.219627662548161 0.2738765501960876 0  -1.225981600504038 0.2438629025201608 0  -1.231597052986177 0.2137023609503765 0  -1.236470637455976 0.1834130930692023 0  -1.240599418248387 0.1530133439990204 0  -1.243980908340246 0.122521425411951 0  -1.246613070848363 0.09195570449958466 0  -1.248494320256466 0.06133459290927246 0  -1.249623523370255 0.03067653565364041 0  -1.25 1.530808498934192e-16 0  -1.249623523370255 -0.0306765356536401 0  -1.248494320256466 -0.06133459290927215 0  -1.246613070848363 -0.09195570449958437 0  -1.243980908340246 -0.1225214254119507 0  -1.240599418248387 -0.1530133439990201 0  -1.236470637455976 -0.183413093069202 0  -1.231597052986177 -0.2137023609503762 0  -1.225981600504038 -0.2438629025201605 0  -1.219627662548161 -0.2738765501960873 0  -1.21253906649318 -0.3037252248790798 0  -1.2047200822443 -0.3333909468436228 0  -1.196175419665261 -0.3628558465680776 0  -1.186910225741296 -0.392102175498614 0  -1.176930081478776 -0.4211123167402752 0  -1.166240998543424 -0.4498687956687352 0  -1.154849415639108 -0.4783542904563621 0  -1.142762194629413 -0.5065516425062371 0  -1.129986616404304 -0.5344438667878523 0  -1.116530376494394 -0.5620141620682583 0  -1.102401580435444 -0.5892459210324971 0  -1.087608738885889 -0.6161227402872299 0  -1.07216076250034 -0.6426284302415269 0  -1.056066956562134 -0.6687470248588712 0  -1.039337015378182 -0.6944627912745025 0  -1.02198101643948 -0.7197602392723067 0  -1.004009414350806 -0.7446241306155416 0  -0.9854330345332579 -0.7690394882257834 0  -0.9662630667034213 -0.7929916052045566 0  -0.946511058133106 -0.8164660536922207 0  -0.9261889066936989 -0.8394486935587731 0  -0.9053088536893338 -0.8619256809213336 0  -0.8838834764831847 -0.8838834764831843 0  -0.8619256809213338 -0.9053088536893334 0  -0.8394486935587733 -0.9261889066936986 0  -0.8164660536922214 -0.9465110581331053 0  -0.7929916052045574 -0.9662630667034209 0  -0.7690394882257841 -0.9854330345332574 0  -0.7446241306155414 -1.004009414350806 0  -0.7197602392723066 -1.02198101643948 0  -0.6944627912745027 -1.039337015378182 0  -0.6687470248588716 -1.056066956562134 0  -0.6426284302415273 -1.07216076250034 0  -0.6161227402872302 -1.087608738885889 0  -0.5892459210324973 -1.102401580435444 0  -0.5620141620682586 -1.116530376494394 0  -0.5344438667878531 -1.129986616404304 0  -0.506551642506238 -1.142762194629413 0  -0.4783542904563629 -1.154849415639108 0  -0.4498687956687349 -1.166240998543424 0  -0.4211123167402749 -1.176930081478776 0  -0.3921021754986143 -1.186910225741296 0  -0.3628558465680781 -1.196175419665261 0  -0.3333909468436231 -1.2047200822443 0  -0.3037252248790802 -1.21253906649318 0  -0.2738765501960876 -1.219627662548161 0  -0.2438629025201608 -1.225981600504038 0  -0.2137023609503771 -1.231597052986176 0  -0.1834130930692029 -1.236470637455976 0  -0.1530133439990199 -1.240599418248387 0  -0.1225214254119506 -1.243980908340246 0  -0.09195570449958419 -1.246613070848363 0  -0.06133459290927254 -1.248494320256466 0  -0.03067653565364049 -1.249623523370255 0  -2.296212748401287e-16 -1.25 0  0.03067653565364003 -1.249623523370255 0  0.06133459290927207 -1.248494320256466 0  0.09195570449958373 -1.246613070848363 0  0.1225214254119501 -1.243980908340246 0  0.1530133439990195 -1.240599418248387 0  0.1834130930692024 -1.236470637455976 0  0.2137023609503766 -1.231597052986177 0  0.2438629025201604 -1.225981600504038 0  0.2738765501960872 -1.219627662548161 0  0.3037252248790797 -1.21253906649318 0  0.3333909468436227 -1.2047200822443 0  0.3628558465680776 -1.196175419665261 0  0.3921021754986139 -1.186910225741296 0  0.4211123167402745 -1.176930081478776 0  0.4498687956687345 -1.166240998543424 0  0.4783542904563625 -1.154849415639108 0  0.5065516425062375 -1.142762194629413 0  0.5344438667878527 -1.129986616404304 0  0.5620141620682583 -1.116530376494394 0  0.589245921032497 -1.102401580435444 0  0.6161227402872298 -1.087608738885889 0  0.6426284302415269 -1.07216076250034 0  0.6687470248588712 -1.056066956562134 0  0.6944627912745023 -1.039337015378182 0  0.7197602392723061 -1.02198101643948 0  0.7446241306155411 -1.004009414350806 0  0.7690394882257838 -0.9854330345332576 0  0.792991605204557 -0.9662630667034211 0  0.8164660536922209 -0.9465110581331058 0  0.8394486935587729 -0.9261889066936989 0  0.8619256809213336 -0.9053088536893338 0  0.8838834764831842 -0.8838834764831847 0  0.9053088536893333 -0.8619256809213339 0  0.9261889066936986 -0.8394486935587733 0  0.9465110581331053 -0.8164660536922214 0  0.9662630667034209 -0.7929916052045574 0  0.9854330345332574 -0.7690394882257843 0  1.004009414350806 -0.7446241306155416 0  1.02198101643948 -0.7197602392723066 0  1.039337015378182 -0.6944627912745027 0  1.056066956562134 -0.6687470248588716 0  1.07216076250034 -0.6426284302415274 0  1.087608738885889 -0.6161227402872304 0  1.102401580435443 -0.5892459210324974 0  1.116530376494394 -0.5620141620682587 0  1.129986616404304 -0.5344438667878532 0  1.142762194629413 -0.50655164250623
[...]
<PointData  Scalars="f_9998408"> 
<DataArray  type="Float64"  Name="f_9998408"  format="ascii">3.6244844247977324e+00  4.2976275562252422e+00  4.9623070168306995e+00  5.6139274140659552e+00  6.2759624904582587e+00  6.9309739126415728e+00  7.5805566638559316e+00  8.2393690404625346e+00  8.8780018250787034e+00  9.5325322521981217e+00  1.0192817664799824e+01  1.0820594604775531e+01  1.1480983688267926e+01  1.2125564217056620e+01  1.2775190815771031e+01  1.3407971824596327e+01  1.4075365781231984e+01  1.4707985372361057e+01  1.5369248990967897e+01  1.6013691024440199e+01  1.6662221516867287e+01  1.7317478625256779e+01  1.7979124354909391e+01  1.8623931001631615e+01  1.9298476222297584e+01  1.9951029126773228e+01  2.0623784675664243e+01  2.1290364387758611e+01  2.1970833861923968e+01  2.2643255836684002e+01  2.3333730828180354e+01  2.4024845265303178e+01  2.4714609110224298e+01  2.5416881864117812e+01  2.6136497548901399e+01  2.6834177726218613e+01  2.7572218575185790e+01  2.8299693436701769e+01  2.9043299805723880e+01  2.9792955968215690e+01  3.0571284392388559e+01  3.1318694745683459e+01  3.2120250582960196e+01  3.2919723914927353e+01  3.3720691500536162e+01  3.4560137051736966e+01  3.5389407561867174e+01  3.6268052548362292e+01  3.7110474674263457e+01  3.8038202226454466e+01  3.8934212298131683e+01  3.9875167403269721e+01  4.0821427590108080e+01  4.1822644749602794e+01  4.2793529630630417e+01  4.3858514155095214e+01  4.4898851692260152e+01  4.6000959800017419e+01  4.7136366063746522e+01  4.8267587425253552e+01  4.9482918976780070e+01  5.0699254531834903e+01  5.1976009386946558e+01  5.3300854066523847e+01  5.4647775176095841e+01  5.6034246930802027e+01  5.7519111180825703e+01  5.9017968911741590e+01  6.0592276172605111e+01  6.2199820389006270e+01  6.3919254082801125e+01  6.5676615544824415e+01  6.7544694841301222e+01  6.9467918863245885e+01  7.1363655597156225e+01  7.3558225710574817e+01  7.5662986607518704e+01  7.7943365951390902e+01  8.0400368272264103e+01  8.2833364082348325e+01  8.5357745627324704e+01  8.8172068217445357e+01  9.0951781855346496e+01  9.3895417787935941e+01  9.7069855673168561e+01  1.0028050722435790e+02  1.0365866714961821e+02  1.0729048108217894e+02  1.1095412528109397e+02  1.1481497594225749e+02  1.1897040837773054e+02  1.2309773269708650e+02  1.2764583866790153e+02  1.3210833972158196e+02  1.3698730826353537e+02  1.4186149857126495e+02  1.4697626920919134e+02  1.5223853567362323e+02  1.5765993207588357e+02  1.6320294491118207e+02  1.6880904916869972e+02  1.7448315341018818e+02  1.8017072738792643e+02  1.8580994203266164e+02  1.9137376728028548e+02  1.9674129878966139e+02  2.0185431341778565e+02  2.0663509569422774e+02  2.1086486311795679e+02  2.1446188346349604e+02  2.1738394823725579e+02  2.1917289116269879e+02  2.2002696303110187e+02  2.1945966792553571e+02  2.1729257781032396e+02  2.1358098390453912e+02  2.0814464733362149e+02  2.0048817628013518e+02  1.9061599514738128e+02  1.7848399153529235e+02  1.6419703929113575e+02  1.4751320286776604e+02  1.2852371292479091e+02  1.0741704574914621e+02  8.4473335706403262e+01  6.0168569707061977e+01  3.4623302465073550e+01  8.1819295608609348e+00  -1.8630184816651582e+01  -4.5322474855781714e+01  -7.1411541914904589e+01  -9.6398789892242633e+01  -1.1996589029732174e+02  -1.4202084051059433e+02  -1.6214132256151433e+02  -1.8009662914079246e+02  -1.9572993309799938e+02  -2.0897512510254001e+02  -2.2010929024692797e+02  -2.2905541866046602e+02  -2.3590815805843587e+02  -2.4045891289156049e+02  -2.4369567122883700e+02  -2.4510381852500794e+02  -2.4511648890953376e+02  -2.4388794562865911e+02  -2.4155384671546460e+02  -2.3833855852636651e+02  -2.3436273755401501e+02  -2.2980941675651562e+02  -2.2474705386943748e+02  -2.1930579461725569e+02  -2.1359233191008170e+02  -2.0772547089368530e+02  -2.0172790345062035e+02  -1.9567269255012300e+02  -1.8962203968032318e+02  -1.8361137299978100e+02  -1.7769213670312351e+02  -1.7184390958254582e+02  -1.6611065478391296e+02  -1.6061111675292699e+02  -1.5509008635023284e+02  -1.4994814134131587e+02  -1.4475654506179723e+02  -1.3992681672144892e+02  -1.3509154033710146e+02  -1.3052076528810048e+02  -1.2620684796106433e+02  -1.2185887319931911e+02  -1.1783585819464514e+02  -1.1396056909768033e+02  -1.1007932564177176e+02  -1.0653151423177643e+02  -1.0306840430159664e+02  -9.9603881055804834e+01  -9.6472776840683835e+01  -9.3431251471151000e+01  -9.0325662350665141e+01  -8.7536998893591502e+01  -8.4733588138019655e+01  -8.2173023605947023e+01  -7.9487353075630253e+01  -7.7192703310907248e+01  -7.4654432492559138e+01  -7.2450476906006344e+01  -7.0272668637639100e+01  -6.8103582361736272e+01  -6.6106888945966460e+01  -6.4052476441211610e+01  -6.2245846970458423e+01  -6.0276087054174702e+01  -5.8566860763499442e+01  -5.6791138644911285e+01  -5.5146714209466701e+01  -5.3481557038897158e+01  -5.1954825299411439e+01  -5.0360716637834940e+01  -4.8893428931305763e+01  -4.7473003420007124e+01  -4.6052108080090143e+01  -4.4672407196713820e+01  -4.3299781071266707e+01  -4.2037517046578387e+01  -4.0750019862264651e+01  -3.9482395547775283e+01  -3.8304276767306291e+01  -3.7098813302326825e+01  -3.5941011488628021e+01  -3.4839909868913942e+01  -3.3723596496561591e+01  -3.2590983861735204e+01  -3.1578450967126550e+01  -3.0499123325427984e+01  -2.9497321012945413e+01  -2.8456842898338465e+01  -2.7514323531377716e+01  -2.6486571405135063e+01  -2.5568258984957730e+01  -2.4640748416873592e+01  -2.3682801402049947e+01  -2.2792309690981632e+01  -2.1893525677534598e+01  -2.1002641804613809e+01  -2.0134713643596243e+01  -1.9271113927022540e+01  -1.8419112095229210e+01  -1.7593149138730301e+01  -1.6734014350734906e+01  -1.5957196738910323e+01  -1.5127259547437280e+01  -1.4304438145114148e+01  -1.3548309768377939e+01  -1.2741663898664720e+01  -1.1988928517775538e+01  -1.1200101118028808e+01  -1.0440977335690881e+01  -9.7054361097405852e+00  -8.9375055036202262e+00  -8.2096881985930708e+00  -7.4683400915153451e+00  -6.7458264378643813e+00  -6.0175842294480351e+00  -5.2990788071459889e+00  -4.5846469988140237e+00  -3.8860776574872085e+00  -3.1840126393286119e+00  -2.4748431416006142e+00  -1.7951781294901421e+00  -1.0765746423299565e+00  -4.2105213603212149e-01  2.6890327017240157e-01  9.5778550543134544e-01  1.6246170345410238e+00  2.2950174756118837e+00  2.9724526739895802e+00  8.8606200772199664e+00  8.3777236777326785e+00  7.9658051848899563e+00  7.5279793896110219e+00  7.0669121850831873e+00  6.5007647395307036e+00  5.8658643250973252e+00  5.5511796203005099e+00  5.0459114269597727e+00  4.5293582875199672e+00  4.0218252878555161e+00  3.4931056743252671e+00  2.9280296844021390e+00  2.3400507823122574e+00  1.7743299679704965e+00  1.1646693437945195e+00  4.8188582328764262e-01  -9.4064662984767594e-02  -7.0365311298837274e-01  -1.3692223322337465e+00  -2.0817309363011471e+00  -2.7645835684022733e+00  -3.4811686700796183e+00  -4.2747683550605373e+00  -5.0960842832943820e+00  -5.9669294752311588e+00  -6.7143766027124991e+00  -7.5446164676834115e+00  -8.4339328763913031e+00  -9.3738477007470884e+00  -1.0331175372036220e+01  -1.1317395466034569e+01  -1.2376696954766825e+01  -1.3301803451707398e+01  -1.4230930423855746e+01  -1.5443275580221613e+01  -1.6714991065264357e+01  -1.7782002784189114e+01  -1.8992491775916104e+01  -2.0346311923607136e+01  -2.1512490760223731e+01  -2.2785802521407348e+01  -2.4267210075011381e+01  -2.5578288372192830e+01  -2.7109289552209855e+01  -2.8579453806499714e+01  -3.0123105198330485e+01  -3.1655798179592477e+01  -3.3344366091431517e+01  -3.5019983401046801e+01  -3.6900542604676346e+01  -3.8624123522479728e+01  -4.0393927470340088e+01  -4.2389778717037956e+01  -4.4277359226879582e+01  -4.6296351416243603e+01  -4.8409090600605523e+01  -5.0538784844981031e+01  -5.2688558345400438e+01  -5.5007933965031548e+01  -5.7391820546181584e+01  -5.9817853244972014e+01  -6.2242028692848365e+01  -6.4837305233879079e+01  -6.7455661784716526e+01  -7.0175775132412284e+01  -7.2816632942381545e+01  -7.5733538539674470e+01  -7.8638079037267659e+01  -8.1715705000332946e+01  -8.5002356773763651e+01  -8.8046146018383709e+01  -9.1384383986975891e+01  -9.4812190326088711e+01  -9.8208259289043809e+01  -1.0172443336613654e+02  -1.0536181511186868e+02  -1.0922733131624081e+02  -1.1296502717974791e+02  -1.1687208607769455e+02  -1.2095207471344794e+02  -1.2515224938929991e+02  -1.2938001532183992e+02  -1.3367398077177836e+02  -1.3812999017672237e+02  -1.4267758807680605e+02  -1.4724997138459398e+02  -1.5201247025693721e+02  -1.5684016147835283e+02  -1.6170636832536070e+02  -1.6674783814949916e+02  -1.7165128379998248e+02  -1.7681434388128261e+02  -1.8176105668438672e+02  -1.8700190003051256e+02  -1.9205354169893585e+02  -1.9721197664092460e+02  -2.0212106113075430e+02  -2.0713265829023302e+02  -2.1202471874539737e+02  -2.1677568852269252e+02  -2.2135589441229277e+02  -2.2553412603670643e+02  -2.2963019157157350e+02  -2.3330905960013780e+02  -2.3662109996359732e+02  -2.3937558627886739e+02  -2.4166475177701832e+02  -2.4322332470556665e+02  -2.4416323480675865e+02  -2.4413856454674493e+02  -2.4331713243028341e+02  -2.4165011644229804e+02  -2.3872892866607145e+02  -2.3466812289172699e+02  -2.2943557252299598e+02  -2.2282942608330927e+02  -2.1479632798481541e+02  -2.0528299808539504e+02  -1.9429948260548002e+02  -1.8180004213705914e+02  -1.6800994223693314e+02  -1.5256204155050318e+02  -1.3593988480866895e+02  -1.1807965666725160e+02  -9.9144665533649047e+01  -7.9288455801855179e+01  -5.8678847420233865e+01  -3.7559686452103342e+01  -1.6142683948458618e+01  5.3368630327047821e+00  2.6651248696899131e+01  4.7610909573191137e+01  6.7931174468993220e+01  8.7395586923476813e+01  1.0586350363978725e+02  1.2313915611416658e+02  1.3913439207776409e+02  1.5362450433063870e+02  1.6683092967474815e+02  1.7854235536249246e+02  1.8874279932407538e+02  1.9740060989626681e+02  2.0466844512242858e+02  2.1020839409652780e+02  2.1448858762594611e+02  2.1778534822296950e+02  2.2030282563464803e+02  2.2180218809428465e+02  2.2234458082347786e+02  2.2183126860677254e+02  2.2042648334898931e+02  2.1866697062235548e+02  2.1613459565177541e+02  2.1303834905738833e+02  2.0969180216828337e+02  2.0605536130362810e+02  2.0207743783382546e+02  1.9790835022177828e+02  1.9330010106726360e+02  1.8889240488939197e+02  1.8410903259068081e+02  1.7956747636060859e+02  1.7492877413236161e+02  1.7024222865155363e+02  1.6561973460034707e+02  1.6087970726541039e+02  1.5633626584021917e+02  1.5172011498433878e+02  1.4726405461801582e+02  1.4295346300547232e+02  1.3874546146978437e+02  1.3453155356028282e+02  1.3037154879464572e+02  1.2630812568802270e+02  1.2243015659368739e+02  1.1867709190572766e+02  1.1495671566055388e+02  1.1131450596704991e+02  1.0785175293834233e+02  1.0443550524692324e+02  1.0116447529033174e+02  9.7976122366548893e+01  9.4891382874269596e+01  9.1903554404116463e+01  8.9004344307786283e+01  8.6111263200411344e+01  8.3492376559463310e+01  8.0849521227974904e+01  7.8222857971189399e+01  7.5768851749892846e+01  7.3403657449804442e+01  7.1013880749145343e+01  6.8887694010618659e+01  6.6646398564064228e+01  6.4581073171038412e+01  6.2506924542986674e+01  6.0516535073788802e+01  5.8573659088958671e+01  5.6838487183017172e+01  5.4980941682282200e+01  5.3324284741808256e+01  5.1604627034443567e+01  4.9898010626886084e+01  4.8359499237333587e+01  4.6914255804104087e+01  4.5296151927731884e+01  4.3986387928017528e+01  4.2637340234041829e+01  4.1319400606091051e+01  4.0067642362082708e+01  3.8820888150316307e+01  3.7577304131615385e+01  3.6462075353981099e+01  3.5343501385066446e+01  3.4258759167943694e+01  3.3230585223446042e+01  3.2188103624175781e+01  3.1193427988490388e+01  3.0262542352388156e+01  2.9355630381367749e+01  2.8523134281207565e+01  2.7685074231991582e+01  2.6941945684486466e+01  2.6066172805057061e+01  2.5340382418839667e+01  2.4541215326880828e+01  2.3763648280737801e+01  2.3218583673345584e+01  2.2517404001635729e+01  2.1818527201789770e+01  2.1121273161737456e+01  2.0644779922009182e+01  1.9980164558978828e+01  1.9371947075426835e+01  1.8813160845160724e+01  1.8253344039597739e+01  1.7778880651368233e+01  1.7219322748264634e+01  1.6733502380998576e+01  1.6174539572117901e+01  1.5681775101096338e+01  1.5214654625733159e+01  1.4709682613163400e+01  1.4235712705113304e+01  1.3789725043588325e+01  1.3348011018078616e+01  1.2867272627361183e+01  1.2473347230979508e+01  1.1987399925369388e+01  1.1536628441103584e+01  1.1154503427042304e+01  1.0695243346446507e+01  1.0266110607468473e+01  9.7604419397877908e+00  9.3486209782130096e+00  3.8490789565184307e+00  8.8476885598002681e+00  -1.2333141383691006e+00  1.3635251485669990e+01  -6.7560316702043215e+00  1.8506252705726695e+01  -1.2443784427400587e+01  2.3697287055214488e+01  -1.8836897118760341e+01  2.9452217992160961e+01  -2.6476119477930897e+01  3.5069717399097534e+01  -3.3809220909181967e+01  4.1008589840602859e+01  -4.2768906014190726e+01  4.7379390670193182e+01  -5.2740727860865611e+01  5.4212767293767179e+01  6.2574977397896614e+00  -6.1813209236108094e+01  8.5254607622802436e-01  1.1359275199212961e+01  -4.7802814529461370e+00  6.2964237398725844e+00  -3.1356936225755763e+00  1.5038171302245489e+00  1.0419678889022283e+01  6.1565262637308400e+01  -1.0810697766620104e+01  1.6599439445578870e+01  1.4660064444557889e+01  -7.1385003861463161e+01  -8.3164974902619822e+00  2.1790860875183945e+01  -1.6994257050426768e+01  1.9307986675910819e+01  -1.3838855466364773e+01  3.7772765834680362e+00  6.9585877178306973e+01  8.5830235180514638e+00  -2.5288954202307110e+00  3.9997958295839351e+00  2.7305839682198894e+01  -2.4038838484523165e+01  1.3776039838565877e+01  2.4610230401884476e+01  -2.1065824251322294e+01  -8.1863478231754613e+01  -8.4320842235646651e+00  1.9508091426304865e+01  -1.4264885591234483e+01  7.8222624731958376e+01  -3.1403851370218952e+01  3.3061064642390591e+01  -5.4005977468584430e+00  -6.8335495462412066e-01  -9.2249017899179407e+01  2.5128961783413775e+01  -2.0932622049453869e+01  -1.6639351366124906e+01  2.9569679816742063e+01  8.3018727983855793e+00  1.2411094605274602e+01  -2.8461931810276280e+01  1.6731539296554452e+01  2.1413776074383584e+01  3.8551078314169949e+01  -3.8689271555029492e+01  8.8547209193377739e+01  3.0014696353309798e+01  -1.0307905696203431e+02  -1.0319129727349903e+01  3.6464387521992265e+01  -3.6833425762148025e+01  -2.7713652613953361e+01  -2.4017703320989682e+01  9.8149676252794791e+01  1.1631283313825913e+01  8.3456645298543386e-01  3.5850291255389692e+01  4.4870425343274306e+01  -4.8646990719782785e+01  3.2476166648152329e+01  -3.5182078203472834e+01  6.9307102084878789e+00  -1.1507781360061547e+02  -4.5057560492966267e+01  4.2943326927783083e+01  1.6418600732683018e+01  5.1090616013877742e+01  2.6387381794305981e+01  -8.9747900791593285e+00  -3.1968556483765330e+01  -3.2433964589605693e+00  1.0860902738205240e+02  4.1437197145875572e+01  -4.3043747239127562e+01  -1.4851172034665062e+01  -5.7292738949375945e+01  2.1458948523272856e+01  -1.2766535989712698e+02  5.2297495818605464e+00  1.0218055706346854e+01  1.9173583454982728e+00  4.9932753424833493e+01  -6.8052431330591530e+00  -8.9547147210293909e-01  -4.4987851567554600e+00  -5.6254405874335113e+01  1.5558638021305997e+01  3.1632334504700147e+01  2.8404523140138043e+00  7.0819080809516626e+00  1.1862081461021968e+02  3.9060817970887307e+01  1.4888300659681887e+01  4.9530380792791329e+00  4.7894465561088367e+01  1.8075050489726497e+01  -4.9703621032042491e+01  5.6381954561903264e+01  5.7897104030463396e+01  4.8768687048387092e+00  -1.3062909562241758e+00  1.2150164914370443e+01  -4.0451202773870264e+01  -1.4155084279843470e+02  2.2210680787434240e+00  -7.3215313645047642e-01  2.5654044117230299e+01  7.1097176416775802e+00  6.5276136359538640e+01  -5.2058643088284970e+00  -5.2766801580150144e+01  5.6137581517713588e+00  -6.4970977945729359e+01  3.0977238386266075e+00  1.2882891322401433e+00  1.2907098611609712e+02  -6.6552064642761891e+01  -1.2861452347631156e+01  -1.0478473332038025e+01  -5.9415697354269215e+00  2.3558431714873258e+01  9.3778176097306609e+00  1.1037032640467837e+01  7.7062830647784590e+00  -4.9404036102289197e+00  1.0347323325169636e+01  -2.9343771773288516e+01  2.3392395219376354e+01  2.1232957806961178e+01  -3.0075566934371523e+00  -2.1451405372338233e+01  1.7867727430706214e+01  1.2637534286350634e+01  -3.0127055008103629e+00  -1.4703927334896891e+01  -1.9350787497135208e+01  -1.6553389544458042e+01  -8.5690145229184296e+00  5.4284318832312117e+01  -2.3668606597358103e+01  4.5926861517829487e+01  -1.6323970789008353e+01  9.5930243968907831e+00  1.3187292551284409e+01  1.4722538957652723e+01  -1.2137723068888008e+01  1.0426821291421851e-01  -7.1923952288757080e+00  2.7091561195196821e+01  3.7476851741988689e+01  -7.6569483112326395e+01  -1.5293754929279001e+02  6.3740717406043210e+01  2.6914567019295351e+01  2.0285021599478686e+01  -1.0476605279965220e+01  -1.8085389528270948e+01  -2.3483534332248020e+01  -2.6213947593710589e+01  -6.1571919423828945e+01  1.9150718079476178e+01  1.7484716574870763e+01  -1.7225045247590938e+01  1.4724319112642814e+01  -1.3524974942874168e+01  -1.1197323328193740e+01  -7.4623596037057865e+01  1.4183171746946977e+02  7.3228416681832300e+01  2.8696377705985089e+01  -7.6209944489202819e+00  7.5430035608443626e+00  2.8043694680276392e+01  4.3523283518761252e-01  -1.9195380090010026e+01  -2.0512885403264245e+00  6.1268609826045584e+01  2.6740761567048952e+00  1.2280885293703214e+01  2.2514151164236893e+01  -1.6534678404925367e+02  -3.9298130993074857e+01  1.8587606572042539e+01  -6.8990342321422258e+00  -1.2808971902412392e+01  4.3607312314005611e+01  -2.1728365694361958e+01  7.4408096400060614e+01  -2.0533065988632501e+01  3.1924045865555833e+01  3.4451593815932839e+01  9.2626855800131764e+00  -7.0907192531582155e+01  -4.6249674695751906e+01  2.1855047145397410e+01  2.5297708430395190e+01  1.5352979930311494e+02  2.3687678035716175e+01  -3.0381357428665069e+01  -3.3583976569299040e+01  8.2835068364306267e+01  9.0941535161025531e+00  4.0068775688976164e+00  1.3427785585651824e+01  1.9559673364397359e-01  1.6311774501867916e+01  -8.7150459985191787e+01  -8.4404253126885393e+01  2.4254522275498992e+01  8.4652901658720694e+00  -3.3481481294102884e+00  -4.6320221336794539e+01  3.1092505838810219e+01  -9.6397780660148683e+01  -2.5735946861418260e+01  6.8811804544940401e+01  -1.7894100863798701e+02  8.3757556282994557e+01  3.2714144522118254e+01  1.6041545774489801e+01  1.6907872529976167e+01  4.8287163345527500e+00  -4.0049885267025429e+00  6.8320578528234293e+01  1.5704989445247058e+01  -9.7803569471667998e+01  3.3718061057475325e+01  -2.5769314714905594e+01  5.0128887478748958e+01  1.6494680472968071e+02  -2.8804739484532490e+01  -8.3242215593709989e+00  -3.2039177153873815e+01  2.0518867992504742e+01  3.9864752287549159e+01  -3.6659550873428543e+01  -8.0298348385629183e+01  -4.1074083519803743e+01  -3.7773622590186022e+01  3.9948454832653049e+01  3.7681287417047066e+01  -1.9062663331324637e+02  -1.0599285444517642e+01  -3.4098224926372914e+01  -5.7777403986485069e+01  -6.0495389621023328e+01  3.0059175204871501e+01  2.7811355354813870e+01  -3.1291553417013887e+01  -2.6953720061348960e+01  1.4549843090204146e+01  5.3111716976572886e+01  5.6148594693912441e+00  5.8147630219513523e+01  -1.8892589208589172e+01  5.9998946557399492e+01  -1.0655626009668769e+02  9.0988405326958699e+01  2.0248191323176588e+01  1.9097903777509174e+01  -6.9718804425864818e+01  3.3825590839317883e+01  -1.4441957911584606e+01  2.8358404155653691e+01  1.7523564311188045e+02  7.7699433005984517e+01  -9.0052191664070776e+01  -3.4786742086258620e+01  -4.9520531781893084e+01  3.6034983354453622e+01  -2.0971702565131722e+00  -2.8413977224830521e+01  2.4897707769873083e+01  6.5717960015834819e+01  4.3489532325040848e+01  1.2118448206219895e+01  -1.5421711559996032e+01  -6.5748765574217970e+01  2.2340333660320777e+01 