<?xml version="1.0"?>
<VTKFile type="UnstructuredGrid"  version="0.1"  >
<UnstructuredGrid>
<Piece  NumberOfPoints="3160" NumberOfCells="5316">
<Points>
<DataArray  type="Float64"  NumberOfComponents="3"  format="ascii">1.25 0 0  1.249623523370255 0.03067653565364036 0  1.248494320256466 0.06133459290927252 0  1.246613070848363 0.09195570449958429 0  1.243980908340246 0.1225214254119508 0  1.240599418248387 0.1530133439990203 0  1.236470637455976 0.1834130930692022 0  1.231597052986177 0.2137023609503765 0  1.225981600504038 0.2438629025201603 0  1.219627662548161 0.2738765501960873 0  1.21253906649318 0.3037252248790798 0  1.2047200822443 0.333390946843623 0  1.196175419665261 0.3628558465680779 0  1.186910225741296 0.3921021754986144 0  1.176930081478776 0.4211123167402751 0  1.166240998543424 0.4498687956687352 0  1.154849415639108 0.4783542904563622 0  1.142762194629413 0.5065516425062373 0  1.129986616404304 0.5344438667878526 0  1.116530376494394 0.5620141620682582 0  1.102401580435444 0.5892459210324971 0  1.087608738885889 0.61612274028723 0  1.07216076250034 0.642628430241527 0  1.056066956562134 0.6687470248588714 0  1.039337015378182 0.6944627912745027 0  1.02198101643948 0.7197602392723067 0  1.004009414350806 0.7446241306155417 0  0.9854330345332579 0.7690394882257835 0  0.9662630667034212 0.7929916052045569 0  0.9465110581331058 0.8164660536922209 0  0.9261889066936989 0.8394486935587729 0  0.9053088536893338 0.8619256809213336 0  0.8838834764831844 0.8838834764831843 0  0.8619256809213337 0.9053088536893337 0  0.8394486935587729 0.9261889066936989 0  0.8164660536922209 0.9465110581331055 0  0.7929916052045569 0.9662630667034212 0  0.7690394882257835 0.9854330345332578 0  0.7446241306155419 1.004009414350806 0  0.7197602392723067 1.02198101643948 0  0.6944627912745028 1.039337015378182 0  0.6687470248588716 1.056066956562134 0  0.642628430241527 1.07216076250034 0  0.6161227402872301 1.087608738885889 0  0.5892459210324973 1.102401580435444 0  0.5620141620682583 1.116530376494394 0  0.5344438667878527 1.129986616404304 0  0.5065516425062373 1.142762194629413 0  0.4783542904563623 1.154849415639108 0  0.4498687956687353 1.166240998543424 0  0.4211123167402751 1.176930081478776 0  0.3921021754986145 1.186910225741296 0  0.3628558465680779 1.196175419665261 0  0.333390946843623 1.2047200822443 0  0.30372522487908 1.21253906649318 0  0.2738765501960872 1.219627662548161 0  0.2438629025201604 1.225981600504038 0  0.2137023609503767 1.231597052986177 0  0.1834130930692022 1.236470637455976 0  0.1530133439990203 1.240599418248387 0  0.122521425411951 1.243980908340246 0  0.09195570449958432 1.246613070848363 0  0.06133459290927266 1.248494320256466 0  0.03067653565364033 1.249623523370255 0  7.654042494670958e-17 1.25 0  -0.03067653565364018 1.249623523370255 0  -0.06133459290927251 1.248494320256466 0  -0.09195570449958416 1.246613070848363 0  -0.1225214254119508 1.243980908340246 0  -0.1530133439990202 1.240599418248387 0  -0.1834130930692021 1.236470637455976 0  -0.2137023609503766 1.231597052986177 0  -0.2438629025201602 1.225981600504038 0  -0.2738765501960871 1.219627662548161 0  -0.3037252248790798 1.21253906649318 0  -0.3333909468436229 1.2047200822443 0  -0.3628558465680777 1.196175419665261 0  -0.3921021754986143 1.186910225741296 0  -0.4211123167402749 1.176930081478776 0  -0.4498687956687352 1.166240998543424 0  -0.4783542904563621 1.154849415639108 0  -0.5065516425062372 1.142762194629413 0  -0.5344438667878524 1.129986616404304 0  -0.5620141620682584 1.116530376494394 0  -0.5892459210324972 1.102401580435444 0  -0.61612274028723 1.087608738885889 0  -0.642628430241527 1.07216076250034 0  -0.6687470248588713 1.056066956562134 0  -0.6944627912745025 1.039337015378182 0  -0.7197602392723067 1.02198101643948 0  -0.7446241306155417 1.004009414350806 0  -0.7690394882257834 0.9854330345332579 0  -0.7929916052045567 0.9662630667034213 0  -0.8164660536922207 0.9465110581331059 0  -0.8394486935587731 0.9261889066936988 0  -0.8619256809213337 0.9053088536893337 0  -0.8838834764831843 0.8838834764831844 0  -0.9053088536893334 0.8619256809213338 0  -0.9261889066936986 0.8394486935587732 0  -0.9465110581331058 0.8164660536922208 0  -0.9662630667034212 0.7929916052045569 0  -0.9854330345332578 0.7690394882257836 0  -1.004009414350806 0.7446241306155419 0  -1.02198101643948 0.7197602392723068 0  -1.039337015378182 0.6944627912745027 0  -1.056066956562134 0.6687470248588714 0  -1.07216076250034 0.6426284302415273 0  -1.087608738885889 0.6161227402872302 0  -1.102401580435444 0.5892459210324973 0  -1.116530376494394 0.5620141620682586 0  -1.129986616404304 0.5344438667878525 0  -1.142762194629413 0.5065516425062374 0  -1.154849415639108 0.4783542904563624 0  -1.166240998543424 0.4498687956687354 0  -1.176930081478776 0.4211123167402754 0  -1.186910225741296 0.3921021754986143 0  -1.196175419665261 0.362855846568078 0  -1.2047200822443 0.3333909468436231 0  -1.21253906649318 0.3037252248790801 0  -1.219627662548161 0.2738765501960876 0  -1.225981600504038 0.2438629025201608 0  -1.231597052986177 0.2137023609503765 0  -1.236470637455976 0.1834130930692023 0  -1.240599418248387 0.1530133439990204 0  -1.243980908340246 0.122521425411951 0  -1.246613070848363 0.09195570449958466 0  -1.248494320256466 0.06133459290927246 0  -1.249623523370255 0.03067653565364041 0  -1.25 1.530808498934192e-16 0  -1.249623523370255 -0.0306765356536401 0  -1.248494320256466 -0.06133459290927215 0  -1.246613070848363 -0.09195570449958437 0  -1.243980908340246 -0.1225214254119507 0  -1.240599418248387 -0.1530133439990201 0  -1.236470637455976 -0.183413093069202 0  -1.231597052986177 -0.2137023609503762 0  -1.225981600504038 -0.2438629025201605 0  -1.219627662548161 -0.2738765501960873 0  -1.21253906649318 -0.3037252248790798 0  -1.2047200822443 -0.3333909468436228 0  -1.196175419665261 -0.3628558465680776 0  -1.186910225741296 -0.392102175498614 0  -1.176930081478776 -0.4211123167402752 0  -1.166240998543424 -0.4498687956687352 0  -1.154849415639108 -0.4783542904563621 0  -1.142762194629413 -0.5065516425062371 0  -1.129986616404304 -0.5344438667878523 0  -1.116530376494394 -0.5620141620682583 0  -1.102401580435444 -0.5892459210324971 0  -1.087608738885889 -0.6161227402872299 0  -1.07216076250034 -0.6426284302415269 0  -1.056066956562134 -0.6687470248588712 0  -1.039337015378182 -0.6944627912745025 0  -1.02198101643948 -0.7197602392723067 0  -1.004009414350806 -0.7446241306155416 0  -0.9854330345332579 -0.7690394882257834 0  -0.9662630667034213 -0.7929916052045566 0  -0.946511058133106 -0.8164660536922207 0  -0.9261889066936989 -0.8394486935587731 0  -0.9053088536893338 -0.8619256809213336 0  -0.8838834764831847 -0.8838834764831843 0  -0.8619256809213338 -0.9053088536893334 0  -0.8394486935587733 -0.9261889066936986 0  -0.8164660536922214 -0.9465110581331053 0  -0.7929916052045574 -0.9662630667034209 0  -0.7690394882257841 -0.9854330345332574 0  -0.7446241306155414 -1.004009414350806 0  -0.7197602392723066 -1.02198101643948 0  -0.6944627912745027 -1.039337015378182 0  -0.6687470248588716 -1.056066956562134 0  -0.6426284302415273 -1.07216076250034 0  -0.6161227402872302 -1.087608738885889 0  -0.5892459210324973 -1.102401580435444 0  -0.5620141620682586 -1.116530376494394 0  -0.5344438667878531 -1.129986616404304 0  -0.506551642506238 -1.142762194629413 0  -0.4783542904563629 -1.154849415639108 0  -0.4498687956687349 -1.166240998543424 0  -0.4211123167402749 -1.176930081478776 0  -0.3921021754986143 -1.186910225741296 0  -0.3628558465680781 -1.196175419665261 0  -0.3333909468436231 -1.2047200822443 0  -0.3037252248790802 -1.21253906649318 0  -0.2738765501960876 -1.219627662548161 0  -0.2438629025201608 -1.225981600504038 0  -0.2137023609503771 -1.231597052986176 0  -0.1834130930692029 -1.236470637455976 0  -0.1530133439990199 -1.240599418248387 0  -0.1225214254119506 -1.243980908340246 0  -0.09195570449958419 -1.246613070848363 0  -0.06133459290927254 -1.248494320256466 0  -0.03067653565364049 -1.249623523370255 0  -2.296212748401287e-16 -1.25 0  0.03067653565364003 -1.249623523370255 0  0.06133459290927207 -1.248494320256466 0  0.09195570449958373 -1.246613070848363 0  0.1225214254119501 -1.243980908340246 0  0.1530133439990195 -1.240599418248387 0  0.1834130930692024 -1.236470637455976 0  0.2137023609503766 -1.231597052986177 0  0.2438629025201604 -1.225981600504038 0  0.2738765501960872 -1.219627662548161 0  0.3037252248790797 -1.21253906649318 0  0.3333909468436227 -1.2047200822443 0  0.3628558465680776 -1.196175419665261 0  0.3921021754986139 -1.186910225741296 0  0.4211123167402745 -1.176930081478776 0  0.4498687956687345 -1.166240998543424 0  0.4783542904563625 -1.154849415639108 0  0.5065516425062375 -1.142762194629413 0  0.5344438667878527 -1.129986616404304 0  0.5620141620682583 -1.116530376494394 0  0.589245921032497 -1.102401580435444 0  0.6161227402872298 -1.087608738885889 0  0.6426284302415269 -1.07216076250034 0  0.6687470248588712 -1.056066956562134 0  0.6944627912745023 -1.039337015378182 0  0.7197602392723061 -1.02198101643948 0  0.7446241306155411 -1.004009414350806 0  0.7690394882257838 -0.9854330345332576 0  0.792991605204557 -0.9662630667034211 0  0.8164660536922209 -0.9465110581331058 0  0.8394486935587729 -0.9261889066936989 0  0.8619256809213336 -0.9053088536893338 0  0.8838834764831842 -0.8838834764831847 0  0.9053088536893333 -0.8619256809213339 0  0.9261889066936986 -0.8394486935587733 0  0.9465110581331053 -0.8164660536922214 0  0.9662630667034209 -0.7929916052045574 0  0.9854330345332574 -0.7690394882257843 0  1.004009414350806 -0.7446241306155416 0  1.02198101643948 -0.7197602392723066 0  1.039337015378182 -0.6944627912745027 0  1.056066956562134 -0.6687470248588716 0  1.07216076250034 -0.6426284302415274 0  1.087608738885889 -0.6161227402872304 0  1.102401580435443 -0.5892459210324974 0  1.116530376494394 -0.5620141620682587 0  1.129986616404304 -0.5344438667878532 0  1.142762194629413 -0.50655164250623
[...]
<PointData  Scalars="f_5673360"> 
<DataArray  type="Float64"  Name="f_5673360"  format="ascii">-1.7591658217448738e+00  -2.2493185730398033e+00  -2.5298962051188187e+00  -2.9512034867406958e+00  -3.3301592952698069e+00  -3.7213870803406639e+00  -4.0808944643807825e+00  -4.5029926381204177e+00  -4.7664613538482730e+00  -5.2549441431750674e+00  -5.5411264560520843e+00  -5.8930316984315469e+00  -6.3617859457456216e+00  -6.6446129148230506e+00  -7.1054370195104291e+00  -7.3905105287903350e+00  -7.8767547879523603e+00  -8.1751927036961511e+00  -8.6056229941087832e+00  -8.9220946840124693e+00  -9.3690596309786613e+00  -9.7260999453018862e+00  -1.0066082796187892e+01  -1.0506166737078564e+01  -1.0915427696409315e+01  -1.1265295985765631e+01  -1.1751275682819276e+01  -1.2064446022424384e+01  -1.2542091414287265e+01  -1.2937272779318283e+01  -1.3369003304164588e+01  -1.3826572066604102e+01  -1.4261357433148081e+01  -1.4624936411200043e+01  -1.5114231963387400e+01  -1.5518036460548483e+01  -1.5933177867237212e+01  -1.6445542245979567e+01  -1.6859065472226849e+01  -1.7507518048532432e+01  -1.7714358665376675e+01  -1.8541893898345410e+01  -1.8808364740134241e+01  -1.9491845755609269e+01  -1.9924641307420906e+01  -2.0428182016377278e+01  -2.1076091962132249e+01  -2.1358993863812820e+01  -2.2234521721894467e+01  -2.2582102141325972e+01  -2.3344464986632019e+01  -2.3713236178934569e+01  -2.4637119956799420e+01  -2.4932203462853451e+01  -2.5929154857970161e+01  -2.6456423804837904e+01  -2.7142413344761835e+01  -2.7751324707689651e+01  -2.8554098848000173e+01  -2.9250760975669557e+01  -2.9995145173699512e+01  -3.0822644902739594e+01  -3.1667175379256861e+01  -3.2327506333229124e+01  -3.3483358831281450e+01  -3.3984158087620330e+01  -3.5137832015394949e+01  -3.5969735610495221e+01  -3.7001518251201460e+01  -3.7730054439700659e+01  -3.9015655920670547e+01  -4.0155636500174111e+01  -4.0946457595926510e+01  -4.2360607315120795e+01  -4.3525261516043237e+01  -4.4746058380113844e+01  -4.5126063038038318e+01  -4.8014397940208632e+01  -4.8172082182881255e+01  -5.0122673288306494e+01  -5.1279476757760357e+01  -5.2777223965958122e+01  -5.4373760184200528e+01  -5.5987348448065553e+01  -5.7392543924488926e+01  -5.9662624228885356e+01  -6.0950330944760523e+01  -6.2762896464004641e+01  -6.5376414743017619e+01  -6.6910862445055798e+01  -6.8929454950910241e+01  -7.0825946953195412e+01  -7.3263345476410137e+01  -7.5521905817773842e+01  -7.7966214331577675e+01  -8.0452830607425525e+01  -8.2865744144737761e+01  -8.6061571432230878e+01  -8.7603792344338942e+01  -9.0451931785460687e+01  -9.3377300529858985e+01  -9.6238745598412535e+01  -9.8793347491139585e+01  -1.0128805882433217e+02  -1.0354620608119843e+02  -1.0607316640683359e+02  -1.0853294403331151e+02  -1.1058534156876419e+02  -1.1246687241043830e+02  -1.1394688229369616e+02  -1.1495487572417936e+02  -1.1549465480437465e+02  -1.1540671406905746e+02  -1.1441059443085565e+02  -1.1272850619874265e+02  -1.1036812408698721e+02  -1.0691978931440296e+02  -1.0254749420672790e+02  -9.7133380383649950e+01  -9.0703817842262339e+01  -8.2846868694520893e+01  -7.3838708479474434e+01  -6.3937322965310166e+01  -5.3136407164224465e+01  -4.1513656151437843e+01  -2.8647392781674281e+01  -1.5260499201150596e+01  -1.8271898078305171e+00  1.1604094931105232e+01  2.5001195554540988e+01  3.8236287889360234e+01  5.1277572887820241e+01  6.3675659180345512e+01  7.4752577507330358e+01  8.4954825727747377e+01  9.4197074360819528e+01  1.0252622959348183e+02  1.0966830634588855e+02  1.1540415786457734e+02  1.2015112025871501e+02  1.2390398319641109e+02  1.2670545699053031e+02  1.2870490357819145e+02  1.2985108064412779e+02  1.3004526284507631e+02  1.2978677208223198e+02  1.2882474828940627e+02  1.2750664780006274e+02  1.2566362794132029e+02  1.2350702354976691e+02  1.2094865322233929e+02  1.1820887522035825e+02  1.1574574244622899e+02  1.1302016823200529e+02  1.1021118537041707e+02  1.0716062649768652e+02  1.0427148856243002e+02  1.0119880054768558e+02  9.8092128112151400e+01  9.5098498103662280e+01  9.2457225111349487e+01  8.9275089418236291e+01  8.6681166309383130e+01  8.4024800140634170e+01  8.1428333563355324e+01  7.8928933151556393e+01  7.6532701579997408e+01  7.4277506587693082e+01  7.1918260706508406e+01  6.9715010800191934e+01  6.7456445379651029e+01  6.5182584430836911e+01  6.3348967190820467e+01  6.1417867432068071e+01  5.9213844747283424e+01  5.7614623991238894e+01  5.6106899319336001e+01  5.3699324327035860e+01  5.3320203555702683e+01  5.0098715143772168e+01  4.9655208245138411e+01  4.7559505303817112e+01  4.6514493058467629e+01  4.5038020029259044e+01  4.4295862314463093e+01  4.1824604467707360e+01  4.1247596798788877e+01  4.0017363123174725e+01  3.8813478494174404e+01  3.7489285925060081e+01  3.6477573539183325e+01  3.5789557159845053e+01  3.4016157543255133e+01  3.3474273933064062e+01  3.2282865916469731e+01  3.1351594847964762e+01  3.0679415768998350e+01  2.9426802504262866e+01  2.8749775596502346e+01  2.7836335773749401e+01  2.6840459188806935e+01  2.6196407852364779e+01  2.5306086494975109e+01  2.4664851829305327e+01  2.3674844243307430e+01  2.3050526218721501e+01  2.2369266209610640e+01  2.1689550857069385e+01  2.0811924530255553e+01  2.0452071591849386e+01  1.9496353827578485e+01  1.9101814528875938e+01  1.8269495396761045e+01  1.7769183415744063e+01  1.7175996529603843e+01  1.6447728576620626e+01  1.5956444240605197e+01  1.5534996581100987e+01  1.4662184087577616e+01  1.4287008069987575e+01  1.3739502383354372e+01  1.3216434431203552e+01  1.2622168257766008e+01  1.2159818788667611e+01  1.1679854343343136e+01  1.1149249198238552e+01  1.0699168181162960e+01  1.0229740350050143e+01  9.6919761933988635e+00  9.2857374510382868e+00  8.7298293618470097e+00  8.4253389631380671e+00  7.7988185299953434e+00  7.5220629048680543e+00  6.9498173926439097e+00  6.5517843350663121e+00  6.0672592387312729e+00  5.7156675694381915e+00  5.2872217422958965e+00  4.7851556637779868e+00  4.4313217809403520e+00  4.0718662691138068e+00  3.5578673718084710e+00  3.2662727574576254e+00  2.8094888972492922e+00  2.4643980113073183e+00  2.0289083976518256e+00  1.7153001347024550e+00  1.1703808020607744e+00  9.5332955897145277e-01  3.6852557358502741e-01  8.7405117078686451e-02  -2.9552514320935386e-01  -7.1683231632647537e-01  -1.0887240296890119e+00  -1.4885960859236076e+00  -4.1939512658210862e+00  -3.7510381834612989e+00  -3.0764797681193787e+00  -2.8970337649966269e+00  -2.5066019669868878e+00  -2.0708287350004637e+00  -1.5862037056098481e+00  -1.0834709944181053e+00  -6.1573965137770192e-01  -1.1063552299094781e-01  2.7152934510442045e-01  6.6615091157389528e-01  1.1006053783447076e+00  1.6870207148820286e+00  2.1994001392775120e+00  2.6645246097790194e+00  3.1891066958874905e+00  3.6984123423399291e+00  4.1087484653641404e+00  4.4931889563672316e+00  5.2018130021262845e+00  5.6289673232040789e+00  6.0830435963446829e+00  6.4548958228390818e+00  7.1997465125525668e+00  7.8407482110322668e+00  8.3884580707929430e+00  8.8708158967670112e+00  9.4599451395037253e+00  1.0098296065032832e+01  1.0561950830186630e+01  1.1234082537506263e+01  1.1885185721582282e+01  1.2506729390130987e+01  1.3038300498803851e+01  1.3621387224166963e+01  1.4646475753833270e+01  1.5201315243639897e+01  1.5759626802597129e+01  1.6262234388515424e+01  1.7058813000210066e+01  1.7782804862747330e+01  1.8552590627070899e+01  1.9404295938304390e+01  2.0127935661072382e+01  2.0938283767227563e+01  2.2004395930015892e+01  2.2622177089681493e+01  2.3332088939573975e+01  2.4221133135536494e+01  2.5202151061094469e+01  2.6191898512793561e+01  2.6988689341286641e+01  2.7841123558270056e+01  2.8911664685218440e+01  2.9810322072391301e+01  3.0883191540941933e+01  3.2124930854040308e+01  3.2977739463601544e+01  3.4067285566417034e+01  3.5262286116097528e+01  3.6509064661208576e+01  3.7633362241411312e+01  3.8886802398063118e+01  4.0023213200577736e+01  4.1391087379325633e+01  4.2425491607946682e+01  4.3635668769608479e+01  4.4840796636072874e+01  4.6399153253755394e+01  4.8132697118829327e+01  4.9652047542282695e+01  5.1008939999295407e+01  5.2709001285510141e+01  5.4720876017598499e+01  5.6054748569604797e+01  5.7554186925530374e+01  5.9577470613864335e+01  6.1602808453713990e+01  6.3104871862401360e+01  6.5031141667429992e+01  6.7603652491840762e+01  6.9180248294881793e+01  7.0923449257162858e+01  7.3561424568879374e+01  7.5493123481233283e+01  7.7486243750644675e+01  7.9849334429718255e+01  8.2596764623490373e+01  8.5041859548994452e+01  8.7309107375708948e+01  8.9697266474813134e+01  9.2309261853135013e+01  9.4392526949968030e+01  9.7941347168347704e+01  1.0046414108857607e+02  1.0270650149150258e+02  1.0519371214993214e+02  1.0780708868896542e+02  1.1051375604768030e+02  1.1305176630948306e+02  1.1569368400221738e+02  1.1768599097769690e+02  1.2003000405658172e+02  1.2219420911110181e+02  1.2394156882779050e+02  1.2541980024311106e+02  1.2687607075179157e+02  1.2790918754539864e+02  1.2857004596821756e+02  1.2862667360875426e+02  1.2841640352172092e+02  1.2773098309900656e+02  1.2641098386256793e+02  1.2450441361705595e+02  1.2191967287591645e+02  1.1860132600917166e+02  1.1456760055688265e+02  1.0967116447220718e+02  1.0396075368038120e+02  9.7631081676434533e+01  9.0593707826583483e+01  8.2486878950886720e+01  7.3805337393598720e+01  6.4355838231463835e+01  5.4222173174050916e+01  4.3946644911646054e+01  3.3288164491729113e+01  2.1914956536682304e+01  1.0499972120441866e+01  -9.6151804663799789e-01  -1.2473977851643909e+01  -2.3139430869729967e+01  -3.3944260653300503e+01  -4.4472710347315989e+01  -5.4356968733318830e+01  -6.3556103170450072e+01  -7.2184907112514978e+01  -7.9577163427864591e+01  -8.6568910976214056e+01  -9.2844753469729298e+01  -9.8282527411092730e+01  -1.0284274362065584e+02  -1.0670842287866665e+02  -1.0981975912232178e+02  -1.1213186504568230e+02  -1.1387193949354030e+02  -1.1509500871198955e+02  -1.1567461237705686e+02  -1.1588815341708955e+02  -1.1545000748615652e+02  -1.1468183643731196e+02  -1.1372958447357242e+02  -1.1247217542390931e+02  -1.1078489949538753e+02  -1.0865199773427371e+02  -1.0674887674994129e+02  -1.0494410242247923e+02  -1.0303129229499319e+02  -1.0046445446676010e+02  -9.8120857662173989e+01  -9.5608930577656210e+01  -9.3300903542874494e+01  -9.1206296152310827e+01  -8.9146979111887461e+01  -8.6905674044760161e+01  -8.3892200144664699e+01  -8.1919280327341610e+01  -7.9840067816264792e+01  -7.7020561346367288e+01  -7.5490100820836403e+01  -7.3448979648827674e+01  -7.1829895702234907e+01  -6.9618093983060319e+01  -6.7661706972287263e+01  -6.5692182129838500e+01  -6.3907235666739140e+01  -6.2419771897385736e+01  -6.1138490790668023e+01  -5.9073339793926380e+01  -5.7509859443616207e+01  -5.6365476338832757e+01  -5.4615988688677412e+01  -5.3063008353620020e+01  -5.1889723773922555e+01  -5.0996007701998586e+01  -4.8985843875796931e+01  -4.7986139505871570e+01  -4.6908255088174776e+01  -4.5746014714069965e+01  -4.4046748055828843e+01  -4.3323019092491144e+01  -4.2203170991030909e+01  -4.1225636627589680e+01  -4.0323730867960919e+01  -3.9388278014398864e+01  -3.8204541601175372e+01  -3.7219505623367397e+01  -3.6377955042913051e+01  -3.5672772931263729e+01  -3.4663085224041509e+01  -3.3909271445881778e+01  -3.3017462662877740e+01  -3.2106187552336998e+01  -3.1048487849749399e+01  -3.0591334692617657e+01  -2.9954749656558931e+01  -2.9137677249710880e+01  -2.8504056736186559e+01  -2.7760830738039715e+01  -2.6972366086301356e+01  -2.6325738493950237e+01  -2.5682290656788709e+01  -2.5079775944164151e+01  -2.4637656703545346e+01  -2.3737412680191266e+01  -2.3149981976600603e+01  -2.2691154692241206e+01  -2.1925578843676515e+01  -2.1287624663821379e+01  -2.0730271450334705e+01  -2.0133906432600082e+01  -1.9757164464596347e+01  -1.9200064520233017e+01  -1.8700906819585583e+01  -1.8214278226577783e+01  -1.7765426989201277e+01  -1.7323931838243698e+01  -1.6677713552863587e+01  -1.6355725584586065e+01  -1.5811477343234399e+01  -1.5292484868902930e+01  -1.4425759807974236e+01  -1.4263412594887940e+01  -1.3836805943209551e+01  -1.3407986972688217e+01  -1.2938200173911916e+01  -1.2560714173424353e+01  -1.2184489265621284e+01  -1.1786491403516449e+01  -1.1195252605235048e+01  -1.0682016743793826e+01  -1.0270175501320551e+01  -9.8471645386125211e+00  -9.4050997346717491e+00  -8.9701865812843096e+00  -8.4511340169935441e+00  -8.1476877024070617e+00  -7.7388081702103957e+00  -7.3039535385007683e+00  -6.8099332116623774e+00  -6.4225784861138457e+00  -6.0527335968628098e+00  -5.6740443619661765e+00  -5.1177600283391751e+00  -4.6232570751396427e+00  -1.6899848152274048e+00  -5.0611161202867248e+00  1.7004096462163882e+00  -8.3263071076717079e+00  5.2734124680266978e+00  -1.1542957968367617e+01  8.9080781123657022e+00  -1.4887785933015158e+01  1.2655985378254947e+01  -1.8578619229578194e+01  1.7096088515858732e+01  -2.2093814153021853e+01  2.1279096515018846e+01  -2.5679499652156128e+01  2.6279061815846394e+01  -2.9420760227175666e+01  3.1595981096874418e+01  -3.3162975544534092e+01  -3.1470041546738838e+00  3.6441806808784172e+01  3.0197087464101313e-01  -6.3799981963486250e+00  3.6984557076890288e+00  -3.5515250512334879e+00  3.3390267185189346e+00  3.4410157410905605e-02  -6.6265018759451504e+00  -3.7393919908627943e+01  7.2988740571331130e+00  -9.6871780149827895e+00  -9.7374056862766025e+00  4.1446102078570014e+01  6.8699536617834367e+00  -1.3010907510750856e+01  1.0948548019456842e+01  -1.2976836577771476e+01  1.0431602170756213e+01  -1.5983924655684012e+00  -4.1714867765766698e+01  -4.5523185782848117e+00  2.1949428429487661e+00  -1.7529206461274498e+00  -1.6509245229878033e+01  1.5115115789405907e+01  -7.7813776528659400e+00  -1.6482484345883886e+01  1.4661136043827947e+01  4.6838662574249781e+01  5.7383156281277392e+00  -1.1407269862954589e+01  9.1820296941738437e+00  -4.6333058076618215e+01  1.9296377424293805e+01  -2.0100586002117261e+01  5.0305763532960697e+00  1.6905787200603148e+00  5.2126385846255211e+01  -1.4932014026973601e+01  1.3041493267142954e+01  1.2343870247398135e+01  -1.9752511094046522e+01  -5.0859099207203284e+00  -8.2345686082081890e+00  1.8990245759408893e+01  -1.1336988061222939e+01  -1.4718438790542921e+01  -2.3547093693799027e+01  2.3407983216314939e+01  -5.1497429013383638e+01  -1.8017128612758775e+01  5.7748668331015182e+01  8.5323591776268106e+00  -2.3715439967136632e+01  2.3505251304725949e+01  1.6930521688031533e+01  1.6729442786960085e+01  -5.6403355753783643e+01  -6.9426657972534072e+00  3.1755812182954302e-01  -2.1732103310754415e+01  -2.7474658382205831e+01  2.9145861951414815e+01  -2.1686730409611158e+01  2.1216417917998776e+01  -3.7202481898552957e+00  6.3936061216547046e+01  2.7922913061444238e+01  -2.7436236439492252e+01  -1.0144316951877737e+01  -3.1271389373350559e+01  -1.8041212020335816e+01  6.7686844831151447e+00  2.1113717744587834e+01  3.0831507715854620e+00  -6.1670149388142988e+01  -2.5162452141009055e+01  2.5733446170581146e+01  1.0334029611717870e+01  3.3844902811485262e+01  -1.3458976119623628e+01  7.0375059053467183e+01  -2.5436203827088111e+00  -5.5347605112990843e+00  -5.9240781204064796e-01  -3.1334789501221255e+01  4.5444601257413906e+00  1.1366557092424330e+00  3.1794413008674507e+00  3.3787808683474395e+01  -8.8386156209061113e+00  -1.9976408009513730e+01  -1.0400725509986808e+00  -3.6553863747907416e+00  -6.6428541617242118e+01  -2.5478770818577615e+01  -8.6826354385948559e+00  -2.5198792992470702e+00  -2.9110654840069426e+01  -1.0337702782896407e+01  3.0513120176536155e+01  -3.4789697048313577e+01  -3.5149049952122660e+01  -2.2648626558243481e+00  2.6139461372845578e+00  -6.7088363952316756e+00  2.5601762701866374e+01  7.7326990669663672e+01  -5.5693076128799812e-01  1.3119166946296499e+00  -1.6180260855598529e+01  -4.1706389935640731e+00  -3.9549802147848737e+01  4.2038546738295395e+00  3.1176028912749345e+01  -2.8980246721361547e+00  3.8217476347550509e+01  -8.6854717521693670e-01  6.1176759230707356e-01  -7.1592366071771934e+01  3.8931396186247298e+01  8.0912905254362233e+00  6.6737522464529917e+00  6.0376022192093588e+00  -1.3846327066686239e+01  -6.0314098835115155e+00  -7.4340246771387370e+00  -4.0974108625117402e+00  4.3461246239273388e+00  -5.9449852681956017e+00  1.8732078102128259e+01  -1.4128195890447692e+01  -1.2340724727764519e+01  2.7359454193079147e+00  1.4326858580761938e+01  -1.0689796416013554e+01  -7.2699328384986419e+00  3.9104020060887814e+00  9.8508315196587422e+00  1.1832398175015429e+01  1.0208963669785668e+01  6.2080584015536697e+00  -3.3055742972419743e+01  1.5616938218536466e+01  -2.9315535106753984e+01  1.1680036048158573e+01  -5.7865729469169489e+00  -9.1346013786636444e+00  -1.0388150781020835e+01  8.3118208285800019e+00  9.1610600547775778e-01  5.8450332214840843e+00  -1.7565661929333892e+01  -2.3452201263012103e+01  4.4292481128824427e+01  8.3217274949936680e+01  -3.8611340935325941e+01  -1.5923167732996776e+01  -1.2455023816270412e+01  8.0659401167407072e+00  1.3711726609017214e+01  1.4259032266827383e+01  1.5785987338731477e+01  3.6146430999307896e+01  -1.3588792607236391e+01  -1.2347909435252879e+01  1.1570575387197144e+01  -9.2159603349634818e+00  1.1000971790759754e+01  9.5670894184594442e+00  4.3047567106331947e+01  -7.7931314442851942e+01  -4.3882597047048463e+01  -1.7035321978062047e+01  7.2113432234523245e+00  -4.3893258546441514e+00  -1.7425311091322989e+01  1.9622903815714454e-01  1.3372924835232253e+01  2.4286091351199364e+00  -3.7200111803394940e+01  -8.7191042391792573e-01  -7.6524755571289562e+00  -1.5929610762913761e+01  8.9418083926756438e+01  2.4209932437665660e+01  -1.2057805685587942e+01  5.1201972933219597e+00  9.4539792075391951e+00  -2.7132420199242684e+01  1.3883588905065199e+01  -4.4064329712336537e+01  1.5186227894318591e+01  -1.9094843750716564e+01  -2.0693392785328530e+01  -5.1133144530406200e+00  4.1299906164871047e+01  2.8095464393356398e+01  -1.4240292099840394e+01  -1.5483662694125590e+01  -8.3785424195038161e+01  -1.5506576629937710e+01  1.8283300281975965e+01  2.0045572000061743e+01  -4.9136647315735075e+01  -4.9080257849898761e+00  -1.9132124548379303e+00  -7.4938841519217183e+00  1.5718143816871692e+00  -1.0586503846821536e+01  4.9235446338304399e+01  4.8650041009544836e+01  -1.7082313858723367e+01  -5.2492408131243158e+00  2.3741575570200366e+00  2.7619500513615929e+01  -1.9014711725238175e+01  5.4835602969596557e+01  1.6294985546163041e+01  -4.1653750723913262e+01  9.6226538163430789e+01  -4.8710147982243889e+01  -2.1082224687306013e+01  -1.1418660540142373e+01  -9.6041076920468740e+00  -2.0605147304527169e+00  4.8062731608699565e+00  -4.0925699792741888e+01  -9.4405389040965506e+00  5.4550833007902241e+01  -2.0955033898826677e+01  1.8232848528597771e+01  -3.0935331544190401e+01  -8.9260288616839389e+01  1.7872861806053645e+01  5.2702435136171975e+00  2.0051233250314684e+01  -1.2151501018500738e+01  -2.4631034461047562e+01  2.2708860081673830e+01  4.5770549787599357e+01  2.4471933608761766e+01  2.2485180880826256e+01  -2.4146281741566611e+01  -2.2721209152725439e+01  1.0219555019288902e+02  7.6576734605745411e+00  2.2700063022664906e+01  3.4190040361700035e+01  3.5932991580706634e+01  -2.0690903149728452e+01  -1.9342534434974731e+01  2.0309722351360861e+01  1.7819660976295900e+01  -8.1517223054269081e+00  -3.3041398787709113e+01  -2.9135461883557738e+00  -3.5597993296369424e+01  1.2080539926895943e+01  -3.6633823081262236e+01  6.0348487276157293e+01  -5.3456919528578887e+01  -1.1618633869452324e+01  -1.1436959274669098e+01  4.0577486882580040e+01  -2.2895692398828807e+01  8.8191079802997976e+00  -1.8520195752781802e+01  -9.4243337620544963e+01  -4.6549470776992251e+01  5.1568690880829557e+01  2.2159144740593977e+01  2.9844454454893846e+01  -2.4232374008449920e+01  1.6440765287621650e+00  1.9696457693179585e+01  -1.4563344745419553e+01  -3.9618821404602123e+01  -2.6373156748117101e+01  -8.3051435348203881e+00  1.24098854639