<?xml version="1.0"?>
<VTKFile type="UnstructuredGrid"  version="0.1"  >
<UnstructuredGrid>
<Piece  NumberOfPoints="2525" NumberOfCells="4203">
<Points>
<DataArray  type="Float64"  NumberOfComponents="3"  format="ascii">1.25 0 0  1.249623523370255 0.03067653565364036 0  1.248494320256466 0.06133459290927252 0  1.246613070848363 0.09195570449958429 0  1.243980908340246 0.1225214254119508 0  1.240599418248387 0.1530133439990203 0  1.236470637455976 0.1834130930692022 0  1.231597052986177 0.2137023609503765 0  1.225981600504038 0.2438629025201603 0  1.219627662548161 0.2738765501960873 0  1.21253906649318 0.3037252248790798 0  1.2047200822443 0.333390946843623 0  1.196175419665261 0.3628558465680779 0  1.186910225741296 0.3921021754986144 0  1.176930081478776 0.4211123167402751 0  1.166240998543424 0.4498687956687352 0  1.154849415639108 0.4783542904563622 0  1.142762194629413 0.5065516425062373 0  1.129986616404304 0.5344438667878526 0  1.116530376494394 0.5620141620682582 0  1.102401580435444 0.5892459210324971 0  1.087608738885889 0.61612274028723 0  1.07216076250034 0.642628430241527 0  1.056066956562134 0.6687470248588714 0  1.039337015378182 0.6944627912745027 0  1.02198101643948 0.7197602392723067 0  1.004009414350806 0.7446241306155417 0  0.9854330345332579 0.7690394882257835 0  0.9662630667034212 0.7929916052045569 0  0.9465110581331058 0.8164660536922209 0  0.9261889066936989 0.8394486935587729 0  0.9053088536893338 0.8619256809213336 0  0.8838834764831844 0.8838834764831843 0  0.8619256809213337 0.9053088536893337 0  0.8394486935587729 0.9261889066936989 0  0.8164660536922209 0.9465110581331055 0  0.7929916052045569 0.9662630667034212 0  0.7690394882257835 0.9854330345332578 0  0.7446241306155419 1.004009414350806 0  0.7197602392723067 1.02198101643948 0  0.6944627912745028 1.039337015378182 0  0.6687470248588716 1.056066956562134 0  0.642628430241527 1.07216076250034 0  0.6161227402872301 1.087608738885889 0  0.5892459210324973 1.102401580435444 0  0.5620141620682583 1.116530376494394 0  0.5344438667878527 1.129986616404304 0  0.5065516425062373 1.142762194629413 0  0.4783542904563623 1.154849415639108 0  0.4498687956687353 1.166240998543424 0  0.4211123167402751 1.176930081478776 0  0.3921021754986145 1.186910225741296 0  0.3628558465680779 1.196175419665261 0  0.333390946843623 1.2047200822443 0  0.30372522487908 1.21253906649318 0  0.2738765501960872 1.219627662548161 0  0.2438629025201604 1.225981600504038 0  0.2137023609503767 1.231597052986177 0  0.1834130930692022 1.236470637455976 0  0.1530133439990203 1.240599418248387 0  0.122521425411951 1.243980908340246 0  0.09195570449958432 1.246613070848363 0  0.06133459290927266 1.248494320256466 0  0.03067653565364033 1.249623523370255 0  7.654042494670958e-17 1.25 0  -0.03067653565364018 1.249623523370255 0  -0.06133459290927251 1.248494320256466 0  -0.09195570449958416 1.246613070848363 0  -0.1225214254119508 1.243980908340246 0  -0.1530133439990202 1.240599418248387 0  -0.1834130930692021 1.236470637455976 0  -0.2137023609503766 1.231597052986177 0  -0.2438629025201602 1.225981600504038 0  -0.2738765501960871 1.219627662548161 0  -0.3037252248790798 1.21253906649318 0  -0.3333909468436229 1.2047200822443 0  -0.3628558465680777 1.196175419665261 0  -0.3921021754986143 1.186910225741296 0  -0.4211123167402749 1.176930081478776 0  -0.4498687956687352 1.166240998543424 0  -0.4783542904563621 1.154849415639108 0  -0.5065516425062372 1.142762194629413 0  -0.5344438667878524 1.129986616404304 0  -0.5620141620682584 1.116530376494394 0  -0.5892459210324972 1.102401580435444 0  -0.61612274028723 1.087608738885889 0  -0.642628430241527 1.07216076250034 0  -0.6687470248588713 1.056066956562134 0  -0.6944627912745025 1.039337015378182 0  -0.7197602392723067 1.02198101643948 0  -0.7446241306155417 1.004009414350806 0  -0.7690394882257834 0.9854330345332579 0  -0.7929916052045567 0.9662630667034213 0  -0.8164660536922207 0.9465110581331059 0  -0.8394486935587731 0.9261889066936988 0  -0.8619256809213337 0.9053088536893337 0  -0.8838834764831843 0.8838834764831844 0  -0.9053088536893334 0.8619256809213338 0  -0.9261889066936986 0.8394486935587732 0  -0.9465110581331058 0.8164660536922208 0  -0.9662630667034212 0.7929916052045569 0  -0.9854330345332578 0.7690394882257836 0  -1.004009414350806 0.7446241306155419 0  -1.02198101643948 0.7197602392723068 0  -1.039337015378182 0.6944627912745027 0  -1.056066956562134 0.6687470248588714 0  -1.07216076250034 0.6426284302415273 0  -1.087608738885889 0.6161227402872302 0  -1.102401580435444 0.5892459210324973 0  -1.116530376494394 0.5620141620682586 0  -1.129986616404304 0.5344438667878525 0  -1.142762194629413 0.5065516425062374 0  -1.154849415639108 0.4783542904563624 0  -1.166240998543424 0.4498687956687354 0  -1.176930081478776 0.4211123167402754 0  -1.186910225741296 0.3921021754986143 0  -1.196175419665261 0.362855846568078 0  -1.2047200822443 0.3333909468436231 0  -1.21253906649318 0.3037252248790801 0  -1.219627662548161 0.2738765501960876 0  -1.225981600504038 0.2438629025201608 0  -1.231597052986177 0.2137023609503765 0  -1.236470637455976 0.1834130930692023 0  -1.240599418248387 0.1530133439990204 0  -1.243980908340246 0.122521425411951 0  -1.246613070848363 0.09195570449958466 0  -1.248494320256466 0.06133459290927246 0  -1.249623523370255 0.03067653565364041 0  -1.25 1.530808498934192e-16 0  -1.249623523370255 -0.0306765356536401 0  -1.248494320256466 -0.06133459290927215 0  -1.246613070848363 -0.09195570449958437 0  -1.243980908340246 -0.1225214254119507 0  -1.240599418248387 -0.1530133439990201 0  -1.236470637455976 -0.183413093069202 0  -1.231597052986177 -0.2137023609503762 0  -1.225981600504038 -0.2438629025201605 0  -1.219627662548161 -0.2738765501960873 0  -1.21253906649318 -0.3037252248790798 0  -1.2047200822443 -0.3333909468436228 0  -1.196175419665261 -0.3628558465680776 0  -1.186910225741296 -0.392102175498614 0  -1.176930081478776 -0.4211123167402752 0  -1.166240998543424 -0.4498687956687352 0  -1.154849415639108 -0.4783542904563621 0  -1.142762194629413 -0.5065516425062371 0  -1.129986616404304 -0.5344438667878523 0  -1.116530376494394 -0.5620141620682583 0  -1.102401580435444 -0.5892459210324971 0  -1.087608738885889 -0.6161227402872299 0  -1.07216076250034 -0.6426284302415269 0  -1.056066956562134 -0.6687470248588712 0  -1.039337015378182 -0.6944627912745025 0  -1.02198101643948 -0.7197602392723067 0  -1.004009414350806 -0.7446241306155416 0  -0.9854330345332579 -0.7690394882257834 0  -0.9662630667034213 -0.7929916052045566 0  -0.946511058133106 -0.8164660536922207 0  -0.9261889066936989 -0.8394486935587731 0  -0.9053088536893338 -0.8619256809213336 0  -0.8838834764831847 -0.8838834764831843 0  -0.8619256809213338 -0.9053088536893334 0  -0.8394486935587733 -0.9261889066936986 0  -0.8164660536922214 -0.9465110581331053 0  -0.7929916052045574 -0.9662630667034209 0  -0.7690394882257841 -0.9854330345332574 0  -0.7446241306155414 -1.004009414350806 0  -0.7197602392723066 -1.02198101643948 0  -0.6944627912745027 -1.039337015378182 0  -0.6687470248588716 -1.056066956562134 0  -0.6426284302415273 -1.07216076250034 0  -0.6161227402872302 -1.087608738885889 0  -0.5892459210324973 -1.102401580435444 0  -0.5620141620682586 -1.116530376494394 0  -0.5344438667878531 -1.129986616404304 0  -0.506551642506238 -1.142762194629413 0  -0.4783542904563629 -1.154849415639108 0  -0.4498687956687349 -1.166240998543424 0  -0.4211123167402749 -1.176930081478776 0  -0.3921021754986143 -1.186910225741296 0  -0.3628558465680781 -1.196175419665261 0  -0.3333909468436231 -1.2047200822443 0  -0.3037252248790802 -1.21253906649318 0  -0.2738765501960876 -1.219627662548161 0  -0.2438629025201608 -1.225981600504038 0  -0.2137023609503771 -1.231597052986176 0  -0.1834130930692029 -1.236470637455976 0  -0.1530133439990199 -1.240599418248387 0  -0.1225214254119506 -1.243980908340246 0  -0.09195570449958419 -1.246613070848363 0  -0.06133459290927254 -1.248494320256466 0  -0.03067653565364049 -1.249623523370255 0  -2.296212748401287e-16 -1.25 0  0.03067653565364003 -1.249623523370255 0  0.06133459290927207 -1.248494320256466 0  0.09195570449958373 -1.246613070848363 0  0.1225214254119501 -1.243980908340246 0  0.1530133439990195 -1.240599418248387 0  0.1834130930692024 -1.236470637455976 0  0.2137023609503766 -1.231597052986177 0  0.2438629025201604 -1.225981600504038 0  0.2738765501960872 -1.219627662548161 0  0.3037252248790797 -1.21253906649318 0  0.3333909468436227 -1.2047200822443 0  0.3628558465680776 -1.196175419665261 0  0.3921021754986139 -1.186910225741296 0  0.4211123167402745 -1.176930081478776 0  0.4498687956687345 -1.166240998543424 0  0.4783542904563625 -1.154849415639108 0  0.5065516425062375 -1.142762194629413 0  0.5344438667878527 -1.129986616404304 0  0.5620141620682583 -1.116530376494394 0  0.589245921032497 -1.102401580435444 0  0.6161227402872298 -1.087608738885889 0  0.6426284302415269 -1.07216076250034 0  0.6687470248588712 -1.056066956562134 0  0.6944627912745023 -1.039337015378182 0  0.7197602392723061 -1.02198101643948 0  0.7446241306155411 -1.004009414350806 0  0.7690394882257838 -0.9854330345332576 0  0.792991605204557 -0.9662630667034211 0  0.8164660536922209 -0.9465110581331058 0  0.8394486935587729 -0.9261889066936989 0  0.8619256809213336 -0.9053088536893338 0  0.8838834764831842 -0.8838834764831847 0  0.9053088536893333 -0.8619256809213339 0  0.9261889066936986 -0.8394486935587733 0  0.9465110581331053 -0.8164660536922214 0  0.9662630667034209 -0.7929916052045574 0  0.9854330345332574 -0.7690394882257843 0  1.004009414350806 -0.7446241306155416 0  1.02198101643948 -0.7197602392723066 0  1.039337015378182 -0.6944627912745027 0  1.056066956562134 -0.6687470248588716 0  1.07216076250034 -0.6426284302415274 0  1.087608738885889 -0.6161227402872304 0  1.102401580435443 -0.5892459210324974 0  1.116530376494394 -0.5620141620682587 0  1.129986616404304 -0.5344438667878532 0  1.142762194629413 -0.50655164250623
[...]
<PointData  Scalars="f_1521443"> 
<DataArray  type="Float64"  Name="f_1521443"  format="ascii">1.1762787864754570e+01  1.1698917079759273e+01  1.1658841723391088e+01  1.1535496744060099e+01  1.1520503109119002e+01  1.1469240122540111e+01  1.1455981212941381e+01  1.1333784554489261e+01  1.1184667934289401e+01  1.1102079629111813e+01  1.0857628497901253e+01  1.0825691911461712e+01  1.0752334309510898e+01  1.0713806974253279e+01  1.0790894754988139e+01  1.0861551475752044e+01  1.1005344376615591e+01  1.1048410410688600e+01  1.1028545985924474e+01  1.0860866303705638e+01  1.0818535878222281e+01  1.0629394865092125e+01  1.0367712078998915e+01  1.0178253250505351e+01  1.0057819408758062e+01  1.0009942117038182e+01  9.8645311216678451e+00  9.6478227203364852e+00  9.4400230774054243e+00  9.3658846943094076e+00  9.1044534341339460e+00  8.9635818451903067e+00  8.8412981513198670e+00  8.5892049870641625e+00  8.4219876802802638e+00  8.1918857134304073e+00  8.1240206808899185e+00  8.0725648169186996e+00  7.9743134378264289e+00  7.8144910801679517e+00  7.6961063702018828e+00  7.5827888784618018e+00  7.4925213837306774e+00  7.3278155987528564e+00  7.2459338443215753e+00  7.2179665231553312e+00  7.2650007003769899e+00  7.1132135672509023e+00  7.0831079429090655e+00  7.1435393001665233e+00  7.1303022703819519e+00  7.1309192351110458e+00  7.2141605634564296e+00  7.3160124080091702e+00  7.3469968199602027e+00  7.4663108829492302e+00  7.6744271773024826e+00  7.8192843048756684e+00  7.9153859524066768e+00  8.0542269776655324e+00  8.2358233789197772e+00  8.4535569664446086e+00  8.6216288792872522e+00  8.8005301451435010e+00  8.9685353753788153e+00  9.1854284343290864e+00  9.3691651626953405e+00  9.5150263564468709e+00  9.7334386136266655e+00  1.0034806791725895e+01  1.0331138112127276e+01  1.0518140148967724e+01  1.0854478214194412e+01  1.1142677088434477e+01  1.1436206424934435e+01  1.1833822383193279e+01  1.2266128261242679e+01  1.2559818143282877e+01  1.2872702339907164e+01  1.3516685675388985e+01  1.4092192548054722e+01  1.4587629904735818e+01  1.5315822246172308e+01  1.6107164849508791e+01  1.7163633441099385e+01  1.8493412952677726e+01  1.8938247782676349e+01  1.9939596266728259e+01  2.1909990337840522e+01  2.3954453301254411e+01  2.4898586149977881e+01  2.6300557395595092e+01  2.9564422011571143e+01  3.2149776251574039e+01  3.3505075611082525e+01  3.5945879277071960e+01  3.7493776006186621e+01  3.9741445487203741e+01  4.4446636407667008e+01  4.9289545878425969e+01  5.1648582488368056e+01  5.5762168030998424e+01  6.0528308288905698e+01  6.4565290544580265e+01  6.9777723755085987e+01  7.4072878572101445e+01  8.0458553313845755e+01  8.9096320504760513e+01  9.5595161065604358e+01  1.0439062790730873e+02  1.0925087617797867e+02  1.1831745552030814e+02  1.3161913388643188e+02  1.4420195086754660e+02  1.5118078104492042e+02  1.6123913061048688e+02  1.7330106226136300e+02  1.8242598683700712e+02  1.8953510575482497e+02  1.9470139257867805e+02  1.9891091436797188e+02  2.0253460979957987e+02  2.0459600237214593e+02  2.0494073486834640e+02  2.0704961739270186e+02  2.1050530880406330e+02  2.1504001065023155e+02  2.2013563842823049e+02  2.2511179950669379e+02  2.3054609438226959e+02  2.3749227259460793e+02  2.4552783282635880e+02  2.5358133905671338e+02  2.6123276840118035e+02  2.6303977672482216e+02  2.6922176940195732e+02  2.7498847789684754e+02  2.7903708931182439e+02  2.8213922989095596e+02  2.8422992651706824e+02  2.8437210564236665e+02  2.8146990747880136e+02  2.7737476395958794e+02  2.6984033618018782e+02  2.6364856773437344e+02  2.5616411738390713e+02  2.4902848373767563e+02  2.4305289780759219e+02  2.3747646747017836e+02  2.3204497252303997e+02  2.2737040841353846e+02  2.2366094950100228e+02  2.1576811301391857e+02  2.0653545128588883e+02  1.9778443258040849e+02  1.8943634182558566e+02  1.8051101578734983e+02  1.7085526848254898e+02  1.6502818073929134e+02  1.5602005402524046e+02  1.4867517347162760e+02  1.4122110762723233e+02  1.3437654914743320e+02  1.2748647568319922e+02  1.2281525035977771e+02  1.1494331161246294e+02  1.1068068699311674e+02  1.0151350753247237e+02  9.4453960877733550e+01  9.1165108978393917e+01  8.8633388049417064e+01  8.2947075470345339e+01  7.3875579505675461e+01  6.9201639863479613e+01  6.6232613454376150e+01  6.4619455879934804e+01  6.2633514766276683e+01  5.8703749018350656e+01  5.5128642100562857e+01  5.0464927761379720e+01  4.8908436589873382e+01  4.7298699778670589e+01  4.5850734511111988e+01  4.4412113687796648e+01  4.0893194067459554e+01  3.8039312475969290e+01  3.6299832025200097e+01  3.5178622731785154e+01  3.3723777956745522e+01  3.0409835175290052e+01  2.8265576065867329e+01  2.7526676001434144e+01  2.6187795821262153e+01  2.5317710162868295e+01  2.4310409644266709e+01  2.3436329243953804e+01  2.1521054673961419e+01  2.0219735292375784e+01  1.9683226183331147e+01  1.8917261215884256e+01  1.8247723252023889e+01  1.7555375646541890e+01  1.6723981110611948e+01  1.6329595800526079e+01  1.5859086707769714e+01  1.5097778727766258e+01  1.4574491833043471e+01  1.3895145408755788e+01  1.3364434267319711e+01  1.3134188625947182e+01  1.2853984815350566e+01  1.2468936920137779e+01  1.2226038105672711e+01  1.2076472338294948e+01  1.1835290867179664e+01  1.1657349073240596e+01  1.1560230601908183e+01  1.1482493612344085e+01  1.1309220042791292e+01  1.1224594693701306e+01  1.1188877595612135e+01  1.1153900004207056e+01  1.1137087437194861e+01  1.1142406471752349e+01  1.1157974891675172e+01  1.1185171938261254e+01  1.1224152068772161e+01  1.1284306220832088e+01  1.1316785460624708e+01  1.1335414505333285e+01  1.1435132074678613e+01  1.1476466129877176e+01  1.1547344315504386e+01  1.1683091153976576e+01  1.1782896974233825e+01  1.1861621276533679e+01  1.1957420202343949e+01  1.2025935472669410e+01  1.2090245047898925e+01  1.2181789949889783e+01  1.2214674961514135e+01  1.2251494394201021e+01  1.2313793809051832e+01  1.2327890458546332e+01  1.2360703147824072e+01  1.2336286576941887e+01  1.2291511884414666e+01  1.2302421122116446e+01  1.2197428356144826e+01  1.2126866835093663e+01  1.2052859782446882e+01  1.2031736093855685e+01  1.1897476339568858e+01  1.1855267969249695e+01  1.1855001582409914e+01  1.1784261811598681e+01  2.8497964899833843e+01  2.8341164626934525e+01  2.8212310782188339e+01  2.8029639827312508e+01  2.7820382991093634e+01  2.7168465239893411e+01  2.6583364681122642e+01  2.5939951109994965e+01  2.5613402336774541e+01  2.4988134223544705e+01  2.4244183831734883e+01  2.3375644833826684e+01  2.2660342278432630e+01  2.1739458745681102e+01  2.0995169716290700e+01  2.0076463790076541e+01  1.9325953865256604e+01  1.8700473151244186e+01  1.7932812221060743e+01  1.7100657932490233e+01  1.6555735092193427e+01  1.5893640842566256e+01  1.5049076483176952e+01  1.4434013941090248e+01  1.3682778377032868e+01  1.3172401397405780e+01  1.2577058710461406e+01  1.2118413439549524e+01  1.1717338862586379e+01  1.1302207139360595e+01  1.0971552508517163e+01  1.0609616726462376e+01  1.0321745681003277e+01  1.0063569536799397e+01  9.8824320269648602e+00  9.7694398850247346e+00  9.6941778614014193e+00  9.7047038417845020e+00  9.7452683866745229e+00  9.8485098044639763e+00  9.9394198137313570e+00  1.0204193890941330e+01  1.0598107860607373e+01  1.0868976607493957e+01  1.1254593244568426e+01  1.1757572455970942e+01  1.2260676985965803e+01  1.3032020515058790e+01  1.3814408701097165e+01  1.4622840119488419e+01  1.5550990535112664e+01  1.6465515570747314e+01  1.7692615622996595e+01  1.8824207246777096e+01  2.0065323945718688e+01  2.1286352664427383e+01  2.2833951449651682e+01  2.4460038225479519e+01  2.5583793562649721e+01  2.6692034869710252e+01  2.8426960631374651e+01  3.1048251208183391e+01  3.2953633021726482e+01  3.5616233444113526e+01  3.8087472605346569e+01  4.0983901167490714e+01  4.3091171664454187e+01  4.5128193929078193e+01  4.7414337618369139e+01  4.9573593992749771e+01  5.1953054192832269e+01  5.4581441526957619e+01  5.7908319010419604e+01  6.0789520990194333e+01  6.4529633166977547e+01  6.7983531988576672e+01  7.0803214446788033e+01  7.4611050336863144e+01  7.9658797891067977e+01  8.5382198034371712e+01  8.9848564548613467e+01  9.5823373281585603e+01  1.0153669401910879e+02  1.0628967069653993e+02  1.1177428921593955e+02  1.1665260352785403e+02  1.2292444171227262e+02  1.3068494382323425e+02  1.3560828888406911e+02  1.4102344283936304e+02  1.4636360608243220e+02  1.5323517392656905e+02  1.5886295450342519e+02  1.6509953392431487e+02  1.7255359187922014e+02  1.7948140971056583e+02  1.8766845716830326e+02  1.9480037412090564e+02  2.0169802019383309e+02  2.0843424302791959e+02  2.1809627115794757e+02  2.2383779787532251e+02  2.2725163586208353e+02  2.3095323923732494e+02  2.3484729615446628e+02  2.3926673740481817e+02  2.4428917829182456e+02  2.4894391540777227e+02  2.5393020263045247e+02  2.5985098281340782e+02  2.6614735889807645e+02  2.7067865328444464e+02  2.7740355850470274e+02  2.8154940577045465e+02  2.8314786288605131e+02  2.8338627484127130e+02  2.8262779342026977e+02  2.8096583885669588e+02  2.7832115314007774e+02  2.7511997544589127e+02  2.7139694285497546e+02  2.6622352632814477e+02  2.6262545385692192e+02  2.6022923269107673e+02  2.5478571639847351e+02  2.4832464942430661e+02  2.4172037252894589e+02  2.3532588575733092e+02  2.2976863655619479e+02  2.2553708784820759e+02  2.2162659583194420e+02  2.1734811720592867e+02  2.1330836059985512e+02  2.0988841552803515e+02  2.0725274236092463e+02  2.0551899012593321e+02  2.0471804360585446e+02  2.0337051623576951e+02  2.0052138885115360e+02  1.9773843581636146e+02  1.9424606806516132e+02  1.8977612167493052e+02  1.8415012474323024e+02  1.7710159055828328e+02  1.6783502748767910e+02  1.5859275606447869e+02  1.5027026217848697e+02  1.4539884488438454e+02  1.3382899448720693e+02  1.2359152519462914e+02  1.1712388142477513e+02  1.0883810349004204e+02  1.0287643732217536e+02  9.6035794576283891e+01  9.0344545830756985e+01  8.3389688603560032e+01  7.7967308890860778e+01  7.3180664727165023e+01  6.9329977441585868e+01  6.4197421862491709e+01  6.0928330618712010e+01  5.7519373200860194e+01  5.3093477700855523e+01  4.9753801035683331e+01  4.7132862987607197e+01  4.4439373629334163e+01  4.0055286247289253e+01  3.7591964057763612e+01  3.5092378286565349e+01  3.3756011256689106e+01  3.1551696996520139e+01  3.0179006745220082e+01  2.7007614304391044e+01  2.4882341165635268e+01  2.4128005339945716e+01  2.3337438828633328e+01  2.0894717026753529e+01  1.9278705279744809e+01  1.8422292960689283e+01  1.7319445389014817e+01  1.5817137566206620e+01  1.5263188143928582e+01  1.4191363933152024e+01  1.3503232832497391e+01  1.2911765410954601e+01  1.2397654468914634e+01  1.1821372771634163e+01  1.1339182932254547e+01  1.0839719547840982e+01  1.0592192995593244e+01  1.0414593996155626e+01  1.0073139533654643e+01  9.9022989412463591e+00  9.6049356821341050e+00  9.3540611878285187e+00  9.2285030028758079e+00  9.1459104960825748e+00  9.0716422962825050e+00  9.0350162850782567e+00  9.0492782159609604e+00  9.0939219355688827e+00  9.2085090512543442e+00  9.3736730272371265e+00  9.5166516919751931e+00  9.6769161123669303e+00  9.9092773183479572e+00  1.0230704715544544e+01  1.0470396277488851e+01  1.0790419589732453e+01  1.1144212952241213e+01  1.1433812364958030e+01  1.1747894936855200e+01  1.2058066203550920e+01  1.2418761531385725e+01  1.2808558510712968e+01  1.3379603068785325e+01  1.3896177791648046e+01  1.4318401499758187e+01  1.4660018590748800e+01  1.5081491025256264e+01  1.5417648055424030e+01  1.5963216995375108e+01  1.6536094627138386e+01  1.7093205409470649e+01  1.7653385171541011e+01  1.8227405394135960e+01  1.8625598514287208e+01  1.9007009140880953e+01  1.9495994275031130e+01  2.0086979936414956e+01  2.0650937211696405e+01  2.1345470979914271e+01  2.1981512320121187e+01  2.2538494530281305e+01  2.3035364434764510e+01  2.3276528526491319e+01  2.3596832858048060e+01  2.4009571494415486e+01  2.4630831493417457e+01  2.5129160617099949e+01  2.5712590182516443e+01  2.6090354124070423e+01  2.6231936078984546e+01  2.6322207077618319e+01  2.6384606008657553e+01  2.6440377446939959e+01  2.6595741757821958e+01  2.6840550294239303e+01  2.7197133508290154e+01  2.7692723526876591e+01  2.8094710915882484e+01  2.8441996200713209e+01  2.8670658829491416e+01  2.8880921956931310e+01  2.8935320028188933e+01  2.8718597707775732e+01  1.8510604180101662e+01  1.8141123202487293e+01  1.6376723078663414e+01  1.7211494510362510e+01  1.3386018869418002e+01  1.5103828038326457e+01  1.1732474623832502e+01  1.3022161569665240e+01  1.0869620497298639e+01  1.1016599697807429e+01  1.1360769798940543e+01  9.6332521309690229e+00  1.2949669065912785e+01  1.6888203438334802e+01  8.8579790358794757e+00  8.7821499430957832e+00  2.2493015198019140e+01  1.4672168159507727e+01  1.4948251230077144e+01  1.4390059848058195e+01  1.3252524331341792e+01  2.2308517574107668e+01  2.0606014448460723e+01  2.8311449336089492e+01  9.2050456580474176e+00  1.3365435937071558e+01  1.2001505476069806e+01  2.1042700594366448e+01  1.7557091881958335e+01  1.8864822843733684e+01  1.3307514380612584e+01  1.1147158621036567e+01  1.1687441553285451e+01  1.3928566089526321e+01  1.3576658069844726e+01  1.6693813876884970e+01  1.0010102382601891e+01  3.6788101366113558e+01  1.3381768108150037e+01  1.1343695874694120e+01  1.0246419525244489e+01  1.3621174645522411e+01  1.2294977004799044e+01  2.3189871171860208e+01  1.4101453077186310e+01  1.1121336988808071e+01  1.1434001990202873e+01  2.2610181089780799e+01  1.1818539920523992e+01  1.0574334543158917e+01  4.5524366242930348e+01  1.1116071741777027e+01  2.0364408248555396e+01  2.0226978536560420e+01  1.2579617681732664e+01  8.7699637354072628e+00  1.0102987156085396e+01  1.6517919038110183e+01  1.1012452673733659e+01  1.1396565448945436e+01  1.1868510228792399e+01  1.8499132061642182e+01  8.2078116779639370e+00  1.5622544895096929e+01  1.2627421213911257e+01  5.4317839881817996e+01  1.2407218878099620e+01  8.9243555422763219e+00  1.1733292052294139e+01  1.3568411648265482e+01  1.6386571160936231e+01  1.0555207953635186e+01  1.4545350321281271e+01  1.0810413031805634e+01  6.4004060202448073e+01  1.7968288766540276e+01  1.4296474859864350e+01  9.1646349963786466e+00  1.7191335409898507e+01  1.8726943728006667e+01  1.4644582697574402e+01  8.2776346036854118e+00  8.0763369878591078e+00  1.3486468632180875e+01  1.9630316460037914e+01  1.2249929966496072e+01  1.6154222118395452e+01  1.0625029471389583e+01  1.8307994309623055e+01  1.3117285752545046e+01  1.3093349821158480e+01  1.2073374219096447e+01  1.1299390066708208e+01  1.2507684174249112e+01  1.6639999384822659e+01  7.7226438568075253e+01  1.2566594955679379e+01  1.0160950185676628e+01  1.5584527206992535e+01  8.8898871650181306e+00  1.3006274890830998e+01  1.3899536585923659e+01  7.9009080945226335e+00  1.2418108081699771e+01  2.5544738915611330e+01  8.9729820822782660e+00  1.7621045169968301e+01  2.4025883007364762e+01  1.3090840608458004e+01  1.2705481010872662e+01  1.6009022298632178e+01  1.4589379750029812e+01  1.6114006484853483e+01  1.0902079529955095e+01  1.5054093633117292e+01  2.5617223708640072e+01  2.4791925149753610e+01  1.2327512988179381e+01  2.3391629383032079e+01  1.9775726857049868e+01  1.7980854752185383e+01  1.8836387612009730e+01  1.1906045359655723e+01  2.4305384182283944e+01  1.1952482589281498e+01  1.0764219647379852e+01  1.3015085529488525e+01  1.4664857861029551e+01  1.9726457070115973e+01  9.4519163243736585e+01  1.1512461003047422e+01  1.5706068732689783e+01  1.1626414398719058e+01  2.0481459754864197e+01  9.6978851647636883e+00  2.2968818676911930e+01  1.5990209521895034e+01  2.2874154978549644e+01  8.5007741103333867e+00  2.2235133870024576e+01  1.8364156955891691e+01  2.0340060344068139e+01  1.1884760608860690e+01  1.1244098320999278e+01  1.5525402393370362e+01  1.7573517758804471e+01  1.5871604293201584e+01  9.6298964412150685e+00  1.0347932670909588e+01  1.2269442314130151e+01  3.3999281065279817e+01  2.0985935797529962e+01  2.0407117233689519e+01  1.6033909101092732e+01  2.5901480195198513e+01  1.2522198917459740e+01  9.2533710235260411e+00  3.2296254714829907e+01  2.0900502195197454e+01  1.9871042772582939e+01  1.3646200970992112e+01  1.1765267390236140e+01  1.9016250100566108e+01  1.4027290507545278e+01  1.8402921750864685e+01  9.2701065041121620e+00  1.1095118572898487e+01  1.2367916905132123e+01  1.1346437490047746e+01  9.1305322350007021e+00  1.3075051504481612e+01  1.2755610776431544e+01  1.1940361884940973e+01  2.0852298685304294e+01  2.4779993410716006e+01  1.1408875599733994e+02  1.1346722034441370e+01  1.1037446709208188e+01  1.8424496135749905e+01  9.0685163509554165e+00  1.5038268052690373e+01  9.2505786449201768e+00  2.7868166903567825e+01  1.4110212360764411e+01  1.0817814134286710e+01  4.2136703911701559e+01  8.4413626014509777e+00  1.6350353718998626e+01  1.1494762938099148e+01  1.1137635007548445e+01  1.1666239914147233e+01  1.0997482682787952e+01  1.7566690411368786e+01  1.1836220650564995e+01  1.0451690261050173e+01  1.2096365653443724e+01  2.5938549329275176e+01  1.5459683018950052e+01  1.6764822843261285e+01  1.9257156339767615e+01  1.0914014968056259e+01  1.0209801351817662e+01  4.1325441310635107e+01  1.2458752274393101e+01  8.0713229711466745e+00  2.7128512343086008e+01  1.0210684381251230e+01  3.1132487223515316e+01  1.1339218978931553e+01  2.3486427877732410e+01  1.4713030562507402e+01  1.5307367327063735e+01  1.4290123975444454e+01  1.6321323032724013e+01  1.0295719364817190e+01  1.2032247162924929e+01  1.2101748411083683e+01  1.0749660911941474e+01  7.7353545363933804e+00  1.2234761579590423e+01  1.3072481194302513e+01  2.1803552256451372e+01  1.2622762339785091e+01  1.0161716552920515e+01  9.4760743795629860e+00  1.0843817515003343e+01  1.2537079030749659e+02  1.3422780489602527e+01  1.4441139590188783e+01  9.3900245956727737e+00  1.1842099882793486e+01  1.2174208784441607e+01  1.1279098905585915e+01  1.3958337408791742e+01  4.8161060998899615e+01  2.5970449283532659e+01  1.0387522259242903e+01  1.3681293078812095e+01  4.9012250215041874e+01  1.2177989514967486e+01  1.2198067201043086e+01  1.2607387964985868e+01  7.5818764669777305e+00  3.6779279905182356e+01  1.2050877407034930e+01  1.4477368154979441e+01  1.2871381755578000e+01  8.7211211777467987e+00  2.2882046631124105e+01  1.7001569260106621e+01  1.3792933262668723e+02  3.4063968103105715e+01  9.4822930557373724e+00  9.8939443756571208e+00  1.6388471856602283e+01  1.3036385547829548e+01  8.9719405596809896e+00  1.6388537845484958e+01  6.0777734440157779e+01  1.0894117769398363e+01  1.1304134746615093e+01  1.1648899982655713e+01  1.0705610796777432e+01  1.4358333943887459e+01  7.5579851618619651e+00  5.9903644845015776e+01  1.1320544467457378e+01  2.0816370109438388e+01  1.5768012492921732e+01  9.4719683249036990e+00  3.6202241794539759e+01  1.2605369543583455e+01  2.4377661385288150e+01  1.2351879157668234e+01  1.5677772776731810e+01  1.2300747917726550e+01  4.5826122755618819e+01  1.1415964592048434e+01  1.8407497318658486e+01  1.3698631088920651e+01  1.4539324708662305e+01  1.1048109376612365e+01  9.0247226548381203e+00  1.0584438459190109e+01  2.2975337531962779e+01  1.3036124372479117e+01  2.1990381767747571e+01  7.9204138112110023e+00  1.0777497808126956e+01  1.7098022153370728e+01  1.9738094114308435e+01  1.8737715937693842e+01  1.1011688782829694e+01  1.3091033879493553e+01  1.0393669733540998e+01  1.5786350697376754e+01  1.2394480393818540e+01  9.4427966784451218e+00  1.3010364175221669e+01  1.6285679969088022e+01  6.7422818123506261e+01  1.0083310579601335e+01  8.7033749573697250e+00  8.7599281471120207e+00  1.5391022855503877e+02  3.7941696180802531e+01  1.1571373904129317e+01  9.0006196258132203e+00  1.5326622661483043e+01  1.2091493531938911e+01  1.9484894154937702e+01  1.1107605629984342e+01  1.0947220783418642e+01  1.1881364335583562e+01  1.1184856090570834e+01  1.3257925790651296e+01  2.1710867302901079e+01  1.0086836