<?xml version="1.0"?>
<VTKFile type="UnstructuredGrid"  version="0.1"  >
<UnstructuredGrid>
<Piece  NumberOfPoints="3160" NumberOfCells="5316">
<Points>
<DataArray  type="Float64"  NumberOfComponents="3"  format="ascii">1.25 0 0  1.249623523370255 0.03067653565364036 0  1.248494320256466 0.06133459290927252 0  1.246613070848363 0.09195570449958429 0  1.243980908340246 0.1225214254119508 0  1.240599418248387 0.1530133439990203 0  1.236470637455976 0.1834130930692022 0  1.231597052986177 0.2137023609503765 0  1.225981600504038 0.2438629025201603 0  1.219627662548161 0.2738765501960873 0  1.21253906649318 0.3037252248790798 0  1.2047200822443 0.333390946843623 0  1.196175419665261 0.3628558465680779 0  1.186910225741296 0.3921021754986144 0  1.176930081478776 0.4211123167402751 0  1.166240998543424 0.4498687956687352 0  1.154849415639108 0.4783542904563622 0  1.142762194629413 0.5065516425062373 0  1.129986616404304 0.5344438667878526 0  1.116530376494394 0.5620141620682582 0  1.102401580435444 0.5892459210324971 0  1.087608738885889 0.61612274028723 0  1.07216076250034 0.642628430241527 0  1.056066956562134 0.6687470248588714 0  1.039337015378182 0.6944627912745027 0  1.02198101643948 0.7197602392723067 0  1.004009414350806 0.7446241306155417 0  0.9854330345332579 0.7690394882257835 0  0.9662630667034212 0.7929916052045569 0  0.9465110581331058 0.8164660536922209 0  0.9261889066936989 0.8394486935587729 0  0.9053088536893338 0.8619256809213336 0  0.8838834764831844 0.8838834764831843 0  0.8619256809213337 0.9053088536893337 0  0.8394486935587729 0.9261889066936989 0  0.8164660536922209 0.9465110581331055 0  0.7929916052045569 0.9662630667034212 0  0.7690394882257835 0.9854330345332578 0  0.7446241306155419 1.004009414350806 0  0.7197602392723067 1.02198101643948 0  0.6944627912745028 1.039337015378182 0  0.6687470248588716 1.056066956562134 0  0.642628430241527 1.07216076250034 0  0.6161227402872301 1.087608738885889 0  0.5892459210324973 1.102401580435444 0  0.5620141620682583 1.116530376494394 0  0.5344438667878527 1.129986616404304 0  0.5065516425062373 1.142762194629413 0  0.4783542904563623 1.154849415639108 0  0.4498687956687353 1.166240998543424 0  0.4211123167402751 1.176930081478776 0  0.3921021754986145 1.186910225741296 0  0.3628558465680779 1.196175419665261 0  0.333390946843623 1.2047200822443 0  0.30372522487908 1.21253906649318 0  0.2738765501960872 1.219627662548161 0  0.2438629025201604 1.225981600504038 0  0.2137023609503767 1.231597052986177 0  0.1834130930692022 1.236470637455976 0  0.1530133439990203 1.240599418248387 0  0.122521425411951 1.243980908340246 0  0.09195570449958432 1.246613070848363 0  0.06133459290927266 1.248494320256466 0  0.03067653565364033 1.249623523370255 0  7.654042494670958e-17 1.25 0  -0.03067653565364018 1.249623523370255 0  -0.06133459290927251 1.248494320256466 0  -0.09195570449958416 1.246613070848363 0  -0.1225214254119508 1.243980908340246 0  -0.1530133439990202 1.240599418248387 0  -0.1834130930692021 1.236470637455976 0  -0.2137023609503766 1.231597052986177 0  -0.2438629025201602 1.225981600504038 0  -0.2738765501960871 1.219627662548161 0  -0.3037252248790798 1.21253906649318 0  -0.3333909468436229 1.2047200822443 0  -0.3628558465680777 1.196175419665261 0  -0.3921021754986143 1.186910225741296 0  -0.4211123167402749 1.176930081478776 0  -0.4498687956687352 1.166240998543424 0  -0.4783542904563621 1.154849415639108 0  -0.5065516425062372 1.142762194629413 0  -0.5344438667878524 1.129986616404304 0  -0.5620141620682584 1.116530376494394 0  -0.5892459210324972 1.102401580435444 0  -0.61612274028723 1.087608738885889 0  -0.642628430241527 1.07216076250034 0  -0.6687470248588713 1.056066956562134 0  -0.6944627912745025 1.039337015378182 0  -0.7197602392723067 1.02198101643948 0  -0.7446241306155417 1.004009414350806 0  -0.7690394882257834 0.9854330345332579 0  -0.7929916052045567 0.9662630667034213 0  -0.8164660536922207 0.9465110581331059 0  -0.8394486935587731 0.9261889066936988 0  -0.8619256809213337 0.9053088536893337 0  -0.8838834764831843 0.8838834764831844 0  -0.9053088536893334 0.8619256809213338 0  -0.9261889066936986 0.8394486935587732 0  -0.9465110581331058 0.8164660536922208 0  -0.9662630667034212 0.7929916052045569 0  -0.9854330345332578 0.7690394882257836 0  -1.004009414350806 0.7446241306155419 0  -1.02198101643948 0.7197602392723068 0  -1.039337015378182 0.6944627912745027 0  -1.056066956562134 0.6687470248588714 0  -1.07216076250034 0.6426284302415273 0  -1.087608738885889 0.6161227402872302 0  -1.102401580435444 0.5892459210324973 0  -1.116530376494394 0.5620141620682586 0  -1.129986616404304 0.5344438667878525 0  -1.142762194629413 0.5065516425062374 0  -1.154849415639108 0.4783542904563624 0  -1.166240998543424 0.4498687956687354 0  -1.176930081478776 0.4211123167402754 0  -1.186910225741296 0.3921021754986143 0  -1.196175419665261 0.362855846568078 0  -1.2047200822443 0.3333909468436231 0  -1.21253906649318 0.3037252248790801 0  -1.219627662548161 0.2738765501960876 0  -1.225981600504038 0.2438629025201608 0  -1.231597052986177 0.2137023609503765 0  -1.236470637455976 0.1834130930692023 0  -1.240599418248387 0.1530133439990204 0  -1.243980908340246 0.122521425411951 0  -1.246613070848363 0.09195570449958466 0  -1.248494320256466 0.06133459290927246 0  -1.249623523370255 0.03067653565364041 0  -1.25 1.530808498934192e-16 0  -1.249623523370255 -0.0306765356536401 0  -1.248494320256466 -0.06133459290927215 0  -1.246613070848363 -0.09195570449958437 0  -1.243980908340246 -0.1225214254119507 0  -1.240599418248387 -0.1530133439990201 0  -1.236470637455976 -0.183413093069202 0  -1.231597052986177 -0.2137023609503762 0  -1.225981600504038 -0.2438629025201605 0  -1.219627662548161 -0.2738765501960873 0  -1.21253906649318 -0.3037252248790798 0  -1.2047200822443 -0.3333909468436228 0  -1.196175419665261 -0.3628558465680776 0  -1.186910225741296 -0.392102175498614 0  -1.176930081478776 -0.4211123167402752 0  -1.166240998543424 -0.4498687956687352 0  -1.154849415639108 -0.4783542904563621 0  -1.142762194629413 -0.5065516425062371 0  -1.129986616404304 -0.5344438667878523 0  -1.116530376494394 -0.5620141620682583 0  -1.102401580435444 -0.5892459210324971 0  -1.087608738885889 -0.6161227402872299 0  -1.07216076250034 -0.6426284302415269 0  -1.056066956562134 -0.6687470248588712 0  -1.039337015378182 -0.6944627912745025 0  -1.02198101643948 -0.7197602392723067 0  -1.004009414350806 -0.7446241306155416 0  -0.9854330345332579 -0.7690394882257834 0  -0.9662630667034213 -0.7929916052045566 0  -0.946511058133106 -0.8164660536922207 0  -0.9261889066936989 -0.8394486935587731 0  -0.9053088536893338 -0.8619256809213336 0  -0.8838834764831847 -0.8838834764831843 0  -0.8619256809213338 -0.9053088536893334 0  -0.8394486935587733 -0.9261889066936986 0  -0.8164660536922214 -0.9465110581331053 0  -0.7929916052045574 -0.9662630667034209 0  -0.7690394882257841 -0.9854330345332574 0  -0.7446241306155414 -1.004009414350806 0  -0.7197602392723066 -1.02198101643948 0  -0.6944627912745027 -1.039337015378182 0  -0.6687470248588716 -1.056066956562134 0  -0.6426284302415273 -1.07216076250034 0  -0.6161227402872302 -1.087608738885889 0  -0.5892459210324973 -1.102401580435444 0  -0.5620141620682586 -1.116530376494394 0  -0.5344438667878531 -1.129986616404304 0  -0.506551642506238 -1.142762194629413 0  -0.4783542904563629 -1.154849415639108 0  -0.4498687956687349 -1.166240998543424 0  -0.4211123167402749 -1.176930081478776 0  -0.3921021754986143 -1.186910225741296 0  -0.3628558465680781 -1.196175419665261 0  -0.3333909468436231 -1.2047200822443 0  -0.3037252248790802 -1.21253906649318 0  -0.2738765501960876 -1.219627662548161 0  -0.2438629025201608 -1.225981600504038 0  -0.2137023609503771 -1.231597052986176 0  -0.1834130930692029 -1.236470637455976 0  -0.1530133439990199 -1.240599418248387 0  -0.1225214254119506 -1.243980908340246 0  -0.09195570449958419 -1.246613070848363 0  -0.06133459290927254 -1.248494320256466 0  -0.03067653565364049 -1.249623523370255 0  -2.296212748401287e-16 -1.25 0  0.03067653565364003 -1.249623523370255 0  0.06133459290927207 -1.248494320256466 0  0.09195570449958373 -1.246613070848363 0  0.1225214254119501 -1.243980908340246 0  0.1530133439990195 -1.240599418248387 0  0.1834130930692024 -1.236470637455976 0  0.2137023609503766 -1.231597052986177 0  0.2438629025201604 -1.225981600504038 0  0.2738765501960872 -1.219627662548161 0  0.3037252248790797 -1.21253906649318 0  0.3333909468436227 -1.2047200822443 0  0.3628558465680776 -1.196175419665261 0  0.3921021754986139 -1.186910225741296 0  0.4211123167402745 -1.176930081478776 0  0.4498687956687345 -1.166240998543424 0  0.4783542904563625 -1.154849415639108 0  0.5065516425062375 -1.142762194629413 0  0.5344438667878527 -1.129986616404304 0  0.5620141620682583 -1.116530376494394 0  0.589245921032497 -1.102401580435444 0  0.6161227402872298 -1.087608738885889 0  0.6426284302415269 -1.07216076250034 0  0.6687470248588712 -1.056066956562134 0  0.6944627912745023 -1.039337015378182 0  0.7197602392723061 -1.02198101643948 0  0.7446241306155411 -1.004009414350806 0  0.7690394882257838 -0.9854330345332576 0  0.792991605204557 -0.9662630667034211 0  0.8164660536922209 -0.9465110581331058 0  0.8394486935587729 -0.9261889066936989 0  0.8619256809213336 -0.9053088536893338 0  0.8838834764831842 -0.8838834764831847 0  0.9053088536893333 -0.8619256809213339 0  0.9261889066936986 -0.8394486935587733 0  0.9465110581331053 -0.8164660536922214 0  0.9662630667034209 -0.7929916052045574 0  0.9854330345332574 -0.7690394882257843 0  1.004009414350806 -0.7446241306155416 0  1.02198101643948 -0.7197602392723066 0  1.039337015378182 -0.6944627912745027 0  1.056066956562134 -0.6687470248588716 0  1.07216076250034 -0.6426284302415274 0  1.087608738885889 -0.6161227402872304 0  1.102401580435443 -0.5892459210324974 0  1.116530376494394 -0.5620141620682587 0  1.129986616404304 -0.5344438667878532 0  1.142762194629413 -0.50655164250623
[...]
<PointData  Scalars="f_4861203"> 
<DataArray  type="Float64"  Name="f_4861203"  format="ascii">-4.7549677258992457e-06  2.3261596467977745e-04  4.7592418388572210e-04  7.0986178377772209e-04  9.5322274095127884e-04  1.1931498105438481e-03  1.4162551544683417e-03  1.6400628567801135e-03  1.8827170791424206e-03  2.0995402120662621e-03  2.3137184700947151e-03  2.5345836789462477e-03  2.7395494490613337e-03  2.9287324646672989e-03  3.1277731386337802e-03  3.3299681848602582e-03  3.5002265256312125e-03  3.6861093217134405e-03  3.8379011843947815e-03  4.0150666487117565e-03  4.1512086878471507e-03  4.3164739842519884e-03  4.4391274814962675e-03  4.5777500507062693e-03  4.6834356909494128e-03  4.8060156684064581e-03  4.9056865375568474e-03  4.9767331391144341e-03  5.0650877545410245e-03  5.1408371588879858e-03  5.1842796826723240e-03  5.2463986703061034e-03  5.2631267951331285e-03  5.3042008868356789e-03  5.3216194618491627e-03  5.2967566689777913e-03  5.3245557764384482e-03  5.2768431581939178e-03  5.2696579950213644e-03  5.2207123354090276e-03  5.1424198531440915e-03  5.0701598298236320e-03  5.0021208980232318e-03  4.9130326030561210e-03  4.7693523586399087e-03  4.6782661365206753e-03  4.5324737074423161e-03  4.3616551979023029e-03  4.2069936778354059e-03  4.0602989792738482e-03  3.8743922083423628e-03  3.6470416305228130e-03  3.4516979641813338e-03  3.1963923065879926e-03  2.9779343999543910e-03  2.7540345586646673e-03  2.4535851966836185e-03  2.2160132826100254e-03  1.9319788535972859e-03  1.6288079566535813e-03  1.3484395785781035e-03  1.0295783962670146e-03  7.1198481084014788e-04  4.1366615715329177e-04  7.2980474401883346e-05  -3.1325473929964885e-04  -6.3296238624437604e-04  -9.9046298600424126e-04  -1.3253871000496167e-03  -1.7341649173248624e-03  -2.0546058409327056e-03  -2.4133986146433438e-03  -2.7055417780566535e-03  -3.0828374841263559e-03  -3.4656979905685519e-03  -3.7030510498186359e-03  -4.1949081319023803e-03  -4.3189101876278538e-03  -4.6139041758362980e-03  -4.9915868468496192e-03  -5.2169940044653109e-03  -5.3684609982880636e-03  -5.6771343344382014e-03  -5.8017350007020891e-03  -5.9032023175951704e-03  -6.0208241646321822e-03  -6.0647470659306512e-03  -6.0506979936871871e-03  -5.9831981681121296e-03  -5.8321708726341050e-03  -5.6570781458973006e-03  -5.4204477582309807e-03  -5.0466271687687140e-03  -4.6470530402702411e-03  -4.1396228274695581e-03  -3.5020526643630193e-03  -2.8647468712521941e-03  -2.0061206364270501e-03  -1.1136627206078196e-03  -7.7547472842873384e-05  1.0711576480946833e-03  2.3271557000139557e-03  3.6850392412662455e-03  5.1387550697967526e-03  6.7157754399749716e-03  8.3632748994544679e-03  1.0063444879359208e-02  1.1849403679071897e-02  1.3588071086631293e-02  1.5214881258855520e-02  1.7073943078370610e-02  1.8482372102596706e-02  1.9954510975449601e-02  2.1549038337942205e-02  2.2610518676805334e-02  2.3417462893496412e-02  2.3812940058747862e-02  2.3825049509563458e-02  2.3385296525905760e-02  2.2510511266345252e-02  2.1186507928277500e-02  1.9294826180406122e-02  1.7014921723049411e-02  1.4333648399022018e-02  1.1330202743239644e-02  8.0186889207194117e-03  4.4883844222020569e-03  9.4576607544507012e-04  -2.5649353450495067e-03  -5.9658596451255983e-03  -9.1774029985490189e-03  -1.2174875508170067e-02  -1.4768973558173483e-02  -1.6952263503587094e-02  -1.8738613373510741e-02  -2.0089277899641940e-02  -2.1053674757497490e-02  -2.1506102824013270e-02  -2.1604106451646208e-02  -2.1366300616754517e-02  -2.0792672420064606e-02  -1.9949840868964175e-02  -1.8826688181761159e-02  -1.7315343051927383e-02  -1.6065225132660094e-02  -1.4429574454526266e-02  -1.2975574242990319e-02  -1.1266377203549444e-02  -9.6927974486948117e-03  -8.1759204250200362e-03  -6.6029363288608789e-03  -5.0836985660087895e-03  -3.6306616145909683e-03  -2.2872994335023729e-03  -1.0274767060947699e-03  1.6228682183788563e-04  1.2235547145339129e-03  2.2150130914371023e-03  3.0668984193428996e-03  3.8572256029880980e-03  4.5321059169626280e-03  5.1582535962699551e-03  5.6086313435315793e-03  6.0376635174776289e-03  6.3803551034367538e-03  6.6185495837874416e-03  6.7864787945471731e-03  6.9197643287186644e-03  6.9314130679390806e-03  7.0110028579238393e-03  7.0380566792933507e-03  6.8315702892865282e-03  6.7619423429984794e-03  6.6382515147967074e-03  6.3465019824690341e-03  6.1669343610144109e-03  5.8983384242977145e-03  5.5017935591691377e-03  5.2264035753202117e-03  5.0626725494559268e-03  4.6509058133197261e-03  4.1982829064219802e-03  3.9171823355505448e-03  3.4065171075086794e-03  3.1006369407860449e-03  2.8076889010818827e-03  2.3178948936386215e-03  1.9445194489453445e-03  1.5356950530464061e-03  1.1849417482613443e-03  7.0165044851697807e-04  3.7717596904019850e-04  4.5721013942300641e-05  -3.6425738902631636e-04  -7.3444033120954617e-04  -1.0727969643274382e-03  -1.4803083831642415e-03  -1.7641750569205230e-03  -2.1125802295353605e-03  -2.4629799757499848e-03  -2.7525890310813135e-03  -3.0321724435529991e-03  -3.2755099371090785e-03  -3.5764353183151058e-03  -3.8226925805567255e-03  -4.0137587879182247e-03  -4.2841821445260960e-03  -4.4612908126617327e-03  -4.6568402122841206e-03  -4.8688388552111132e-03  -5.0235625026668973e-03  -5.1469185078694248e-03  -5.2816760695823823e-03  -5.4074679228814084e-03  -5.5177519835670850e-03  -5.5854805768629371e-03  -5.7001216670417689e-03  -5.7178003095144959e-03  -5.7789595989834993e-03  -5.8391611262304122e-03  -5.8132711141860825e-03  -5.8434896709842511e-03  -5.8305178514852897e-03  -5.7908613504452826e-03  -5.7735131930868044e-03  -5.7062384719133467e-03  -5.6646484578690955e-03  -5.5784265402797507e-03  -5.4871448797440339e-03  -5.4073169771240871e-03  -5.2877115268192788e-03  -5.1650909444375167e-03  -5.0483968543802420e-03  -4.9128975475874938e-03  -4.7614269995153585e-03  -4.6167835383193172e-03  -4.4317338703601930e-03  -4.2708587618444458e-03  -4.0757797078725712e-03  -3.9121396582120268e-03  -3.6946572535982232e-03  -3.5038328501755972e-03  -3.2947474411908375e-03  -3.0695815638753653e-03  -2.8667926810702240e-03  -2.6403552073687949e-03  -2.4075450642181933e-03  -2.1731008503644406e-03  -1.9479802545948933e-03  -1.6950281159172490e-03  -1.4809376364084293e-03  -1.2287395328803234e-03  -9.7876873269673410e-04  -7.4312480487738833e-04  -4.9772281676002434e-04  -2.6582169144329440e-04  -1.0604177391106018e-03  -1.8393822519405684e-04  6.5757500074790194e-04  1.5216393300996332e-03  2.3774367706926062e-03  3.2422390747013424e-03  4.0776055087854979e-03  4.9151940746609800e-03  5.7481995013550571e-03  6.5686506740790076e-03  7.3783264368806134e-03  8.1617096324839902e-03  8.9450838958426478e-03  9.7021832430350709e-03  1.0447965262846802e-02  1.1176887378880571e-02  1.1874006889849874e-02  1.2581128987905870e-02  1.3234917832914965e-02  1.3863992446879119e-02  1.4468047307148487e-02  1.5072800438636038e-02  1.5610287663656790e-02  1.6129560908711735e-02  1.6612695062974598e-02  1.7060083951299071e-02  1.7527333319104662e-02  1.7906134247720577e-02  1.8265449016349671e-02  1.8594933284162143e-02  1.8870341051032323e-02  1.9109742086633505e-02  1.9302156414089847e-02  1.9522793553742805e-02  1.9630148307852265e-02  1.9663315465238609e-02  1.9734703125267514e-02  1.9750723886895534e-02  1.9706620672990314e-02  1.9590238542607469e-02  1.9446202472406627e-02  1.9267330987532555e-02  1.9034061157237641e-02  1.8770694538320070e-02  1.8451238053333659e-02  1.8054862598507970e-02  1.7653007874035159e-02  1.7184599179422708e-02  1.6647800398945204e-02  1.6077287561993489e-02  1.5453596793682214e-02  1.4796315021350460e-02  1.4084334247601299e-02  1.3302045329685727e-02  1.2497563261009868e-02  1.1632829792243251e-02  1.0707090209929389e-02  9.7668439793487764e-03  8.7613400011410172e-03  7.6923570396571503e-03  6.5938480926269012e-03  5.4589856556692372e-03  4.2618293957026538e-03  3.0474234335556788e-03  1.7682344589285048e-03  4.7578067369010780e-04  -8.6021467417327655e-04  -2.2334363276375448e-03  -3.6843127839105497e-03  -5.1095977795180087e-03  -6.5772176224857511e-03  -8.0353393376723439e-03  -9.5695861729982006e-03  -1.1108498986742297e-02  -1.2627564949365355e-02  -1.4198441811302332e-02  -1.5745514463841991e-02  -1.7293325809884415e-02  -1.8834516455393295e-02  -2.0407460860189387e-02  -2.1950807912492931e-02  -2.3445264444656073e-02  -2.4971258707617482e-02  -2.6402651233551622e-02  -2.7784491902334122e-02  -2.9210430468087713e-02  -3.0523874816888709e-02  -3.1753689517591950e-02  -3.2903984655926123e-02  -3.4138797456892321e-02  -3.5157818566445058e-02  -3.6077523878605772e-02  -3.6939157637810006e-02  -3.7557888240992168e-02  -3.8156948989010044e-02  -3.8635343959950955e-02  -3.8941827201154779e-02  -3.9153873003581488e-02  -3.9186463448612187e-02  -3.9089719508503311e-02  -3.8804474706135912e-02  -3.8376610211598702e-02  -3.7763098408235593e-02  -3.6959376390813717e-02  -3.5975983732635469e-02  -3.4828651181404845e-02  -3.3528592894777429e-02  -3.2022974531143139e-02  -3.0399323871073011e-02  -2.8632686162620911e-02  -2.6804033984877750e-02  -2.4784841512658209e-02  -2.2565923623944079e-02  -2.0474201184154737e-02  -1.8318073309410720e-02  -1.6133098205010746e-02  -1.3975299572456672e-02  -1.1876654528622311e-02  -9.8811570114731885e-03  -7.9923682622177784e-03  -6.2146701079458739e-03  -4.6912127023377818e-03  -3.3150284047479403e-03  -2.1389081925393175e-03  -1.1762496857205733e-03  -4.1466862053665774e-04  1.8202231981718169e-04  5.7709795348162096e-04  8.2226360239123699e-04  9.6148240022411768e-04  1.0240138598094420e-03  1.0447824946329966e-03  1.0930186962559722e-03  1.2049933416830860e-03  1.3793616640268625e-03  1.6814169003254932e-03  2.1432549584757357e-03  2.7775843260486360e-03  3.5748065973272517e-03  4.6451319141927730e-03  5.8624494308727147e-03  7.2511789779398624e-03  8.8211027293698865e-03  1.0537062999522338e-02  1.2373422463332034e-02  1.4277069399432697e-02  1.6260856560018397e-02  1.8233411456704131e-02  2.0343151924094867e-02  2.2267804834087000e-02  2.4229438229723815e-02  2.6023382594150848e-02  2.7717562304019640e-02  2.9318538709673037e-02  3.0815167528141316e-02  3.2153504043531823e-02  3.3303553840890177e-02  3.4246251704053397e-02  3.5045901639311157e-02  3.5676623705048288e-02  3.6159630967752945e-02  3.6457945126416653e-02  3.6605700148624402e-02  3.6571942292737004e-02  3.6407392929493555e-02  3.6097969468533810e-02  3.5663901122382755e-02  3.5139260162632989e-02  3.4336378364846362e-02  3.3601771896976301e-02  3.2717386253896079e-02  3.1756416520187417e-02  3.0621002019885941e-02  2.9466000506820453e-02  2.8220552390194970e-02  2.6920867798640266e-02  2.5589541737766893e-02  2.4201360809241460e-02  2.2742388238832519e-02  2.1310054435521811e-02  1.9811906214718185e-02  1.8273688152140193e-02  1.6784704670235063e-02  1.5263131648216768e-02  1.3735683861254209e-02  1.2164745784220854e-02  1.0699135150875125e-02  9.1628050571070981e-03  7.6806089236086872e-03  6.1712337498073533e-03  4.7572683231354475e-03  3.2964107629860177e-03  1.8764999102355265e-03  5.0678461957038407e-04  -8.2884658680091108e-04  -2.1526683070916108e-03  -3.4134551914809384e-03  -4.6518619275905124e-03  -5.8257370263191440e-03  -6.9823712453628579e-03  -8.0701372743077013e-03  -9.1381899432546737e-03  -1.0138431587893097e-02  -1.1112873071259820e-02  -1.2035984934190735e-02  -1.2914699396247571e-02  -1.3717563293116995e-02  -1.4471397802137022e-02  -1.5198801261182265e-02  -1.5858662194830855e-02  -1.6487979035372146e-02  -1.7059110020197013e-02  -1.7572352917579793e-02  -1.8034572153235878e-02  -1.8449567389451294e-02  -1.8812240591389303e-02  -1.9136791834294127e-02  -1.9393578348135931e-02  -1.9608723719429372e-02  -1.9785125773717674e-02  -1.9907983107978030e-02  -1.9989639325866095e-02  -2.0015688822616451e-02  -2.0002543722856404e-02  -1.9955125210116550e-02  -1.9848335830625181e-02  -1.9714162851080672e-02  -1.9469337454188454e-02  -1.9255997974216451e-02  -1.8971132753840731e-02  -1.8662194296898652e-02  -1.8290315507579771e-02  -1.7939757029240465e-02  -1.7518940301685118e-02  -1.7061872542410862e-02  -1.6563892710650913e-02  -1.6022109770823349e-02  -1.5506938156998570e-02  -1.4909583233214204e-02  -1.4285740901586023e-02  -1.3657183093451904e-02  -1.2999072191282806e-02  -1.2317067349424391e-02  -1.1610015562338030e-02  -1.0879373597438419e-02  -1.0124081847740163e-02  -9.3630668647828770e-03  -8.5849493035546603e-03  -7.7866914758956572e-03  -6.9780370642423921e-03  -6.1411620342985357e-03  -5.3312206325871504e-03  -4.4863532565677785e-03  -3.6280507105585862e-03  -2.7809747481003944e-03  -1.9232570335633303e-03  8.8553847334645893e-05  -1.0950036437897567e-03  1.2807077159372958e-03  -2.1061737423495870e-03  2.4031082418540461e-03  -2.9054137843882713e-03  3.2869363227950982e-03  -3.4191863871005515e-03  3.8518197230533071e-03  -3.6790673133608033e-03  4.1104679274615152e-03  -3.5812010540031158e-03  3.8905873415176822e-03  -3.1293017500393689e-03  3.2531091285022589e-03  -2.4188422324661948e-03  2.1719289627665159e-03  -1.4645813658067507e-03  1.2128737536220740e-04  1.0134702584879858e-03  -6.5093068368160710e-05  3.7593943563207354e-04  -1.7643921788554565e-04  -1.4633633958516033e-03  4.3143116198151674e-03  1.7584848134166286e-03  -4.1153687796433554e-03  -2.6653413504242447e-04  -3.9078285577173586e-04  4.0113578462074988e-04  -6.4739578621669323e-03  -3.8754540737234380e-04  6.7131092413602296e-03  3.5106856891476741e-04  -3.0924077468515182e-04  -8.1373907218283952e-03  8.4554521142053193e-03  3.2552688910893707e-05  1.1578789154206566e-03  5.8851036200681861e-04  -6.7626117771068964e-04  1.4283504404284656e-04  8.6614683573329676e-05  1.2384149045310182e-05  1.0939111882978970e-03  -8.9074808585302492e-03  8.7390674197278268e-03  -1.9748101395189164e-03  -1.1890003266828292e-03  1.4657815360287125e-03  -1.4827497619658663e-03  2.7033421019388433e-03  -7.2760149608076214e-05  1.5997938954539646e-04  6.3079042294086653e-03  3.3537195127357074e-03  -3.5637550907366439e-03  1.4999337684754805e-03  -1.5456419398088956e-03  1.0387143842287805e-02  -9.6927920995304191e-03  -2.9918471009909354e-03  -5.7023677430216536e-03  9.0518656666817490e-03  -8.0769385720973769e-03  -1.0307716439941121e-02  1.6425287258653134e-04  2.4476842269586532e-05  4.4837482066768805e-03  1.3455447404892146e-03  -5.3064939087353212e-03  9.4436694707934338e-03  -8.0861363224471530e-03  7.6632662196646035e-03  -1.3395861939376440e-03  1.0677441207362049e-02  6.1950117993063627e-03  -1.7214109088518623e-03  8.4836449621796017e-04  1.0483210571335957e-03  -1.0342970734214719e-04  4.0690468001188998e-04  -1.0250152126187287e-02  -1.0207087108067376e-03  -6.7479783404818640e-04  -6.9391800999778460e-03  6.7482994585451907e-03  -6.7281875097814550e-03  -2.8301486771036251e-03  -2.9674618528231414e-04  -1.1531204016481365e-02  2.8201920894654945e-03  1.0074161106456980e-02  1.7711178330286344e-03  7.9452569333993018e-03  6.5154620389557677e-04  -5.5084118451063002e-04  3.6330130726195432e-03  3.0473058594861560e-04  -3.5844144930867634e-03  -8.7581674525739183e-03  3.4388050620753294e-04  1.2774080554724368e-03  -3.0837623627001881e-04  -4.6850883317217252e-03  -1.7454465116731959e-03  -8.1466632724435913e-04  -1.5570273488877441e-03  3.7854914481371222e-03  1.9815497978249125e-03  -4.0710148564221142e-03  6.3367588156976477e-04  7.1541325887251590e-04  9.7950917530095927e-03  -9.2158246401409568e-03  -1.3474297216601675e-04  -3.9770925395691225e-04  2.1154771876515528e-04  2.3180825251132762e-03  6.1573413825450349e-03  -2.6786764641752235e-03  -3.6066371918794791e-04  -9.8143061607399770e-06  5.9489549244125918e-03  1.7632571524723510e-03  8.0843679602065899e-03  -1.0801558058104822e-02  2.9377335408855968e-04  1.3089134817583463e-04  -3.7215256237911640e-03  -2.8358686036983765e-03  -2.4716954025663694e-04  1.4506619599777249e-03  -6.8652157945267141e-05  -1.1622722675179832e-03  1.5904446911581016e-03  1.5745300832440531e-03  3.4485965063298625e-03  1.1428086640295366e-02  2.8382396734369191e-04  -2.5674966605542240e-03  -2.3940188382197197e-03  9.3831420306393475e-03  2.4840431927857089e-03  -5.2531344222857650e-03  -6.9192017440614538e-03  -1.1608137587817097e-04  3.6974816905283431e-03  -8.0217269634562534e-04  4.1052653749849739e-03  -3.6618684158073208e-04  2.6394308413178304e-03  3.1227041636521332e-04  3.9465062276276630e-03  -6.1672404528286483e-04  -2.5363979251483073e-04  7.3670943642822877e-03  7.2713491450491748e-04  -2.8222720762621219e-03  -2.7850474770925540e-03  7.0185073192863322e-04  -1.1106307153529374e-04  4.7771827286857745e-03  -7.0444391684784608e-03  6.5973382854704844e-03  -2.4323195921222411e-03  -8.8088690145176028e-03  -1.0286257738517053e-02  6.7829551529777871e-04  1.8706263379429499e-03  4.6827076118965485e-03  -6.4799607147622042e-03  -3.3750440338351142e-03  1.2882171282425822e-04  -1.2405782990631879e-02  -8.1302869122649001e-05  2.7372004259287297e-03  -2.0406315339556252e-03  5.8354734357801063e-03  1.3178250267446573e-02  -2.7732986546731495e-03  -2.9075507821379565e-03  2.6308549453849575e-04  -1.2701397189884370e-02  -1.1626363432463174e-02  2.4528284435437519e-03  -3.5102078367538715e-03  1.2514206559293899e-02  1.2012231242227629e-02  -1.2240353737369592e-03  1.3555646504655771e-02  -1.3291340686456604e-05  2.7224626456840172e-03  1.0643342949465664e-02  -1.6138498722793190e-03  -2.3100357957217378e-03  -7.1530270823209159e-04  7.3197275394183406e-03  2.8850837660278766e-03  -4.1840587217218490e-04  -5.0820981736325363e-06  -3.3308496091511586e-03  -1.3307779982284315e-02  -1.4316601915767516e-02  3.1731358386894283e-03  -5.7937429114982225e-03  4.3475585089622874e-04  6.0220205748134914e-03  -2.8986835078420826e-03  5.4379075964206176e-04  3.6734621842605588e-03  1.3453165866246971e-02  2.5045349148706988e-03  2.4481657310662362e-03  -1.3452622773079393e-04  5.1074056209185394e-04  2.9780837108268027e-03  -6.2664764745499462e-03  -1.0573139623431865e-03  1.4820900525342719e-02  -6.7012103272917805e-03  -2.4691068417309384e-03  -2.5406753086814494e-03  6.0547662364531722e-04  1.3473031218975819e-03  1.0963040972365383e-04  2.2486427390291568e-03  4.9101635853663478e-03  -5.5039710353506337e-03  -4.6875370057736579e-03  3.1106743780966292e-04  -1.3639469603028771e-02  -4.4035996697718727e-03  -1.6473096422126500e-03  -9.2253232485001657e-04  -4.7740246937291747e-04  -5.8699343918825180e-04  1.5719150353687861e-03  -6.1905618272057022e-04  -1.5501311827176033e-02  6.3572820987380487e-03  -6.0742298020337723e-03  -1.1713478239562905e-02  2.7041538657145803e-03  1.9584984404593883e-04  9.0472714588580826e-03  1.6229009638609319e-03  -1.3303289069227365e-03  -7.6821217938243674e-03  -2.1599634635461997e-03  1.3713984662886390e-02  -2.1239573330110446e-03  1.6730643060857631e-02  6.5387029484740699e-04  -2.5715629185088448e-03  2.4265309257506516e-03  5.8879810012556352e-04  -1.3105742975020802e-03  2.9622226020917307e-03  -2.9965077281308640e-03  -1.7524848217210292e-03  -2.0800826407462465e-03  1.8947132795507720e-03  2.0517028480139528e-03  -1.7088852313450708e-02  3.0477445843869635e-03  1.2185224994613778e-02  1.4871294406810609e-03  2.7587507968453080e-03  -1.3586278713706403e-02  -1.4360442521567053e-02  6.9222813474903583e-03  7.0974687196627599e-03  2.3032677654959790e-03  -3.5803170741894128e-03  -3.5030125864459117e-04  -9.1909609923812748e-04  -2.6659305409747333e-04  -1.3128536808927347e-03  -9.5941110864978900e-04  4.8103781309594194e-04  3.2380909964421722e-03  -5.7539328767077587e-04  2.0266398939963314e-04  -1.2728133298767111e-02  -3.4153349312122253e-03  -7.5374914025451234e-03  1.7804278202146296e-02  -6.3685038508228908e-04  5.6269209560950322e-04  6.3598797584277483e-03  2.2185301252912303e-03  -1.2512524171866938e-02  -1.4034391231570547e-03  1.3427360134766315e-02  3.3826360180269194e-03  5.1928561579223987e-04  1.2615397351038941e-03  -7.9776748646788326e-03  1.4267162135103968e-02  4.4629796425620501e