<?xml version="1.0"?>
<VTKFile type="UnstructuredGrid"  version="0.1"  >
<UnstructuredGrid>
<Piece  NumberOfPoints="3160" NumberOfCells="5316">
<Points>
<DataArray  type="Float64"  NumberOfComponents="3"  format="ascii">1.25 0 0  1.249623523370255 0.03067653565364036 0  1.248494320256466 0.06133459290927252 0  1.246613070848363 0.09195570449958429 0  1.243980908340246 0.1225214254119508 0  1.240599418248387 0.1530133439990203 0  1.236470637455976 0.1834130930692022 0  1.231597052986177 0.2137023609503765 0  1.225981600504038 0.2438629025201603 0  1.219627662548161 0.2738765501960873 0  1.21253906649318 0.3037252248790798 0  1.2047200822443 0.333390946843623 0  1.196175419665261 0.3628558465680779 0  1.186910225741296 0.3921021754986144 0  1.176930081478776 0.4211123167402751 0  1.166240998543424 0.4498687956687352 0  1.154849415639108 0.4783542904563622 0  1.142762194629413 0.5065516425062373 0  1.129986616404304 0.5344438667878526 0  1.116530376494394 0.5620141620682582 0  1.102401580435444 0.5892459210324971 0  1.087608738885889 0.61612274028723 0  1.07216076250034 0.642628430241527 0  1.056066956562134 0.6687470248588714 0  1.039337015378182 0.6944627912745027 0  1.02198101643948 0.7197602392723067 0  1.004009414350806 0.7446241306155417 0  0.9854330345332579 0.7690394882257835 0  0.9662630667034212 0.7929916052045569 0  0.9465110581331058 0.8164660536922209 0  0.9261889066936989 0.8394486935587729 0  0.9053088536893338 0.8619256809213336 0  0.8838834764831844 0.8838834764831843 0  0.8619256809213337 0.9053088536893337 0  0.8394486935587729 0.9261889066936989 0  0.8164660536922209 0.9465110581331055 0  0.7929916052045569 0.9662630667034212 0  0.7690394882257835 0.9854330345332578 0  0.7446241306155419 1.004009414350806 0  0.7197602392723067 1.02198101643948 0  0.6944627912745028 1.039337015378182 0  0.6687470248588716 1.056066956562134 0  0.642628430241527 1.07216076250034 0  0.6161227402872301 1.087608738885889 0  0.5892459210324973 1.102401580435444 0  0.5620141620682583 1.116530376494394 0  0.5344438667878527 1.129986616404304 0  0.5065516425062373 1.142762194629413 0  0.4783542904563623 1.154849415639108 0  0.4498687956687353 1.166240998543424 0  0.4211123167402751 1.176930081478776 0  0.3921021754986145 1.186910225741296 0  0.3628558465680779 1.196175419665261 0  0.333390946843623 1.2047200822443 0  0.30372522487908 1.21253906649318 0  0.2738765501960872 1.219627662548161 0  0.2438629025201604 1.225981600504038 0  0.2137023609503767 1.231597052986177 0  0.1834130930692022 1.236470637455976 0  0.1530133439990203 1.240599418248387 0  0.122521425411951 1.243980908340246 0  0.09195570449958432 1.246613070848363 0  0.06133459290927266 1.248494320256466 0  0.03067653565364033 1.249623523370255 0  7.654042494670958e-17 1.25 0  -0.03067653565364018 1.249623523370255 0  -0.06133459290927251 1.248494320256466 0  -0.09195570449958416 1.246613070848363 0  -0.1225214254119508 1.243980908340246 0  -0.1530133439990202 1.240599418248387 0  -0.1834130930692021 1.236470637455976 0  -0.2137023609503766 1.231597052986177 0  -0.2438629025201602 1.225981600504038 0  -0.2738765501960871 1.219627662548161 0  -0.3037252248790798 1.21253906649318 0  -0.3333909468436229 1.2047200822443 0  -0.3628558465680777 1.196175419665261 0  -0.3921021754986143 1.186910225741296 0  -0.4211123167402749 1.176930081478776 0  -0.4498687956687352 1.166240998543424 0  -0.4783542904563621 1.154849415639108 0  -0.5065516425062372 1.142762194629413 0  -0.5344438667878524 1.129986616404304 0  -0.5620141620682584 1.116530376494394 0  -0.5892459210324972 1.102401580435444 0  -0.61612274028723 1.087608738885889 0  -0.642628430241527 1.07216076250034 0  -0.6687470248588713 1.056066956562134 0  -0.6944627912745025 1.039337015378182 0  -0.7197602392723067 1.02198101643948 0  -0.7446241306155417 1.004009414350806 0  -0.7690394882257834 0.9854330345332579 0  -0.7929916052045567 0.9662630667034213 0  -0.8164660536922207 0.9465110581331059 0  -0.8394486935587731 0.9261889066936988 0  -0.8619256809213337 0.9053088536893337 0  -0.8838834764831843 0.8838834764831844 0  -0.9053088536893334 0.8619256809213338 0  -0.9261889066936986 0.8394486935587732 0  -0.9465110581331058 0.8164660536922208 0  -0.9662630667034212 0.7929916052045569 0  -0.9854330345332578 0.7690394882257836 0  -1.004009414350806 0.7446241306155419 0  -1.02198101643948 0.7197602392723068 0  -1.039337015378182 0.6944627912745027 0  -1.056066956562134 0.6687470248588714 0  -1.07216076250034 0.6426284302415273 0  -1.087608738885889 0.6161227402872302 0  -1.102401580435444 0.5892459210324973 0  -1.116530376494394 0.5620141620682586 0  -1.129986616404304 0.5344438667878525 0  -1.142762194629413 0.5065516425062374 0  -1.154849415639108 0.4783542904563624 0  -1.166240998543424 0.4498687956687354 0  -1.176930081478776 0.4211123167402754 0  -1.186910225741296 0.3921021754986143 0  -1.196175419665261 0.362855846568078 0  -1.2047200822443 0.3333909468436231 0  -1.21253906649318 0.3037252248790801 0  -1.219627662548161 0.2738765501960876 0  -1.225981600504038 0.2438629025201608 0  -1.231597052986177 0.2137023609503765 0  -1.236470637455976 0.1834130930692023 0  -1.240599418248387 0.1530133439990204 0  -1.243980908340246 0.122521425411951 0  -1.246613070848363 0.09195570449958466 0  -1.248494320256466 0.06133459290927246 0  -1.249623523370255 0.03067653565364041 0  -1.25 1.530808498934192e-16 0  -1.249623523370255 -0.0306765356536401 0  -1.248494320256466 -0.06133459290927215 0  -1.246613070848363 -0.09195570449958437 0  -1.243980908340246 -0.1225214254119507 0  -1.240599418248387 -0.1530133439990201 0  -1.236470637455976 -0.183413093069202 0  -1.231597052986177 -0.2137023609503762 0  -1.225981600504038 -0.2438629025201605 0  -1.219627662548161 -0.2738765501960873 0  -1.21253906649318 -0.3037252248790798 0  -1.2047200822443 -0.3333909468436228 0  -1.196175419665261 -0.3628558465680776 0  -1.186910225741296 -0.392102175498614 0  -1.176930081478776 -0.4211123167402752 0  -1.166240998543424 -0.4498687956687352 0  -1.154849415639108 -0.4783542904563621 0  -1.142762194629413 -0.5065516425062371 0  -1.129986616404304 -0.5344438667878523 0  -1.116530376494394 -0.5620141620682583 0  -1.102401580435444 -0.5892459210324971 0  -1.087608738885889 -0.6161227402872299 0  -1.07216076250034 -0.6426284302415269 0  -1.056066956562134 -0.6687470248588712 0  -1.039337015378182 -0.6944627912745025 0  -1.02198101643948 -0.7197602392723067 0  -1.004009414350806 -0.7446241306155416 0  -0.9854330345332579 -0.7690394882257834 0  -0.9662630667034213 -0.7929916052045566 0  -0.946511058133106 -0.8164660536922207 0  -0.9261889066936989 -0.8394486935587731 0  -0.9053088536893338 -0.8619256809213336 0  -0.8838834764831847 -0.8838834764831843 0  -0.8619256809213338 -0.9053088536893334 0  -0.8394486935587733 -0.9261889066936986 0  -0.8164660536922214 -0.9465110581331053 0  -0.7929916052045574 -0.9662630667034209 0  -0.7690394882257841 -0.9854330345332574 0  -0.7446241306155414 -1.004009414350806 0  -0.7197602392723066 -1.02198101643948 0  -0.6944627912745027 -1.039337015378182 0  -0.6687470248588716 -1.056066956562134 0  -0.6426284302415273 -1.07216076250034 0  -0.6161227402872302 -1.087608738885889 0  -0.5892459210324973 -1.102401580435444 0  -0.5620141620682586 -1.116530376494394 0  -0.5344438667878531 -1.129986616404304 0  -0.506551642506238 -1.142762194629413 0  -0.4783542904563629 -1.154849415639108 0  -0.4498687956687349 -1.166240998543424 0  -0.4211123167402749 -1.176930081478776 0  -0.3921021754986143 -1.186910225741296 0  -0.3628558465680781 -1.196175419665261 0  -0.3333909468436231 -1.2047200822443 0  -0.3037252248790802 -1.21253906649318 0  -0.2738765501960876 -1.219627662548161 0  -0.2438629025201608 -1.225981600504038 0  -0.2137023609503771 -1.231597052986176 0  -0.1834130930692029 -1.236470637455976 0  -0.1530133439990199 -1.240599418248387 0  -0.1225214254119506 -1.243980908340246 0  -0.09195570449958419 -1.246613070848363 0  -0.06133459290927254 -1.248494320256466 0  -0.03067653565364049 -1.249623523370255 0  -2.296212748401287e-16 -1.25 0  0.03067653565364003 -1.249623523370255 0  0.06133459290927207 -1.248494320256466 0  0.09195570449958373 -1.246613070848363 0  0.1225214254119501 -1.243980908340246 0  0.1530133439990195 -1.240599418248387 0  0.1834130930692024 -1.236470637455976 0  0.2137023609503766 -1.231597052986177 0  0.2438629025201604 -1.225981600504038 0  0.2738765501960872 -1.219627662548161 0  0.3037252248790797 -1.21253906649318 0  0.3333909468436227 -1.2047200822443 0  0.3628558465680776 -1.196175419665261 0  0.3921021754986139 -1.186910225741296 0  0.4211123167402745 -1.176930081478776 0  0.4498687956687345 -1.166240998543424 0  0.4783542904563625 -1.154849415639108 0  0.5065516425062375 -1.142762194629413 0  0.5344438667878527 -1.129986616404304 0  0.5620141620682583 -1.116530376494394 0  0.589245921032497 -1.102401580435444 0  0.6161227402872298 -1.087608738885889 0  0.6426284302415269 -1.07216076250034 0  0.6687470248588712 -1.056066956562134 0  0.6944627912745023 -1.039337015378182 0  0.7197602392723061 -1.02198101643948 0  0.7446241306155411 -1.004009414350806 0  0.7690394882257838 -0.9854330345332576 0  0.792991605204557 -0.9662630667034211 0  0.8164660536922209 -0.9465110581331058 0  0.8394486935587729 -0.9261889066936989 0  0.8619256809213336 -0.9053088536893338 0  0.8838834764831842 -0.8838834764831847 0  0.9053088536893333 -0.8619256809213339 0  0.9261889066936986 -0.8394486935587733 0  0.9465110581331053 -0.8164660536922214 0  0.9662630667034209 -0.7929916052045574 0  0.9854330345332574 -0.7690394882257843 0  1.004009414350806 -0.7446241306155416 0  1.02198101643948 -0.7197602392723066 0  1.039337015378182 -0.6944627912745027 0  1.056066956562134 -0.6687470248588716 0  1.07216076250034 -0.6426284302415274 0  1.087608738885889 -0.6161227402872304 0  1.102401580435443 -0.5892459210324974 0  1.116530376494394 -0.5620141620682587 0  1.129986616404304 -0.5344438667878532 0  1.142762194629413 -0.50655164250623
[...]
<PointData  Scalars="f_4861173"> 
<DataArray  type="Float64"  Name="f_4861173"  format="ascii">-2.4822104812592415e-03  -2.4756897327425373e-03  -2.4546561600162138e-03  -2.4440458231435110e-03  -2.4188787370499586e-03  -2.3931885805069685e-03  -2.3554103187917990e-03  -2.3244013612409554e-03  -2.2805900267675126e-03  -2.2325067989639098e-03  -2.1717896005721445e-03  -2.1219025617422249e-03  -2.0568450297343706e-03  -1.9832304446140668e-03  -1.9193599635342338e-03  -1.8405764597144777e-03  -1.7662393658881234e-03  -1.6733984336604335e-03  -1.5842526273655072e-03  -1.4967471043412946e-03  -1.3965895903863897e-03  -1.3056005553612343e-03  -1.1931159848071304e-03  -1.0875908497206021e-03  -9.7589915722981035e-04  -8.6742475660773089e-04  -7.4900084891768451e-04  -6.2848129345278070e-04  -5.1517923247788801e-04  -3.8513508362782612e-04  -2.6243160301565540e-04  -1.3961576146769331e-04  -7.8115186444119604e-06  1.1452699081621643e-04  2.4890862800002074e-04  3.8336457942908818e-04  5.0919766481982286e-04  6.5489039233453106e-04  7.8278218767291051e-04  9.1745895401644604e-04  1.0641353070560203e-03  1.1769040886330912e-03  1.3162297560294547e-03  1.4530560291646671e-03  1.5796760269611754e-03  1.7093874764546571e-03  1.8418042992881954e-03  1.9725571935074165e-03  2.0770801297184684e-03  2.1967389106717088e-03  2.3306959273997410e-03  2.4441350678787947e-03  2.5499468090477736e-03  2.6622103362861521e-03  2.7402812540836849e-03  2.8493993551735549e-03  2.9355139109213976e-03  3.0247429550751968e-03  3.1127329040662268e-03  3.1700717682931982e-03  3.2423491780762216e-03  3.3203450556267824e-03  3.3590509097609915e-03  3.4378940416399007e-03  3.4754521388047788e-03  3.4690205953544469e-03  3.4954746272030431e-03  3.4875178721630535e-03  3.5150827153633286e-03  3.4861702317314043e-03  3.4757687856633579e-03  3.4323376187042347e-03  3.4184949647696381e-03  3.3788284133719178e-03  3.2436275145873300e-03  3.2607219050592088e-03  3.1437695167867547e-03  3.0196422413955593e-03  2.9585232205911801e-03  2.8639591736374244e-03  2.6563165727350084e-03  2.5558168529057597e-03  2.4075473771509102e-03  2.1925757952014138e-03  2.0549516057216419e-03  1.8658795646610664e-03  1.6517095332481957e-03  1.4970989829862678e-03  1.3057398368285093e-03  1.0626272130550777e-03  8.7440107141612705e-04  6.9208771825813979e-04  5.5743398307440148e-04  3.5473182409203393e-04  2.2175241074007780e-04  9.7209227166250583e-05  2.3288451865194216e-06  -3.3083203995101696e-05  -5.4395132118645495e-05  4.3793075320771456e-06  1.0302139098252885e-04  2.8475228895520562e-04  5.4590464665380380e-04  9.1195932841022116e-04  1.3835140305868861e-03  1.9675650311554859e-03  2.6892463397825196e-03  3.5685531444072990e-03  4.5498628660691053e-03  5.7405139419466318e-03  7.1213416743486375e-03  8.5796598898236678e-03  1.0256231413839289e-02  1.2198029633227834e-02  1.4175591508289535e-02  1.6316513686466257e-02  1.8550724765764599e-02  2.0835494218410380e-02  2.3125625600850186e-02  2.5393356091321422e-02  2.7637299041052027e-02  2.9666720672378018e-02  3.1504899750720926e-02  3.3073425941175044e-02  3.4363076316164927e-02  3.5373749782050171e-02  3.5899460139520868e-02  3.6073938249573487e-02  3.5851132720382636e-02  3.5277986974814192e-02  3.4338948172806569e-02  3.3107730663448375e-02  3.1489032761481385e-02  2.9701409215198506e-02  2.7750405274433735e-02  2.5655198965511300e-02  2.3489280276139005e-02  2.1234345066891969e-02  1.9043070968829574e-02  1.6907774754063725e-02  1.4844679035421840e-02  1.2881802181686431e-02  1.1062366810977470e-02  9.3004890596349067e-03  7.7952846490772620e-03  6.4121859789517234e-03  5.1960263994039312e-03  4.1133248710496020e-03  3.1647355233727077e-03  2.3909270990402341e-03  1.7327050780803286e-03  1.1852468810284128e-03  7.4376770767622903e-04  4.0244451517061766e-04  1.5733178836417166e-04  -1.3335019641453049e-05  -1.1175483406427685e-04  -1.4716194637347149e-04  -1.2214150259072805e-04  -7.3283542101424022e-05  2.1053133186255457e-05  1.4885023287214644e-04  2.9021366094841638e-04  4.7914651984356051e-04  6.3593275231177946e-04  8.2683726638731073e-04  1.0343485090306334e-03  1.2481919048268114e-03  1.5288215274926950e-03  1.6594502807732127e-03  1.9279440100979084e-03  2.1303024705722467e-03  2.2703986011450086e-03  2.5169194755764990e-03  2.6849597313180771e-03  2.7937241317264683e-03  3.0285438483244275e-03  3.1484817344660746e-03  3.2396196333961194e-03  3.3852818526033941e-03  3.5161012235251209e-03  3.5914982275141762e-03  3.6391486152659589e-03  3.7553019869247515e-03  3.7404840308095173e-03  3.8362005898729687e-03  3.8840673404015738e-03  3.8709686563292490e-03  3.9041188352263939e-03  3.8997595108103823e-03  3.9128803550785253e-03  3.8473751867263272e-03  3.8577004280806876e-03  3.8081554253353803e-03  3.7572240588806659e-03  3.7166612609092452e-03  3.6287124127810377e-03  3.5648590576872995e-03  3.5011104736998805e-03  3.4072940795371381e-03  3.3042273003755485e-03  3.1865741776394519e-03  3.0829358090943091e-03  2.9838610382799734e-03  2.8616004540446818e-03  2.7306762258412056e-03  2.6093886547533143e-03  2.4651476573120646e-03  2.3468178511175460e-03  2.1950879399470452e-03  2.0592538663466780e-03  1.9075943465712403e-03  1.7782666164954267e-03  1.6329776380354672e-03  1.4734163001931526e-03  1.3367446395598814e-03  1.1754703556551413e-03  1.0269393818440867e-03  8.9712426687663202e-04  7.3133304637669450e-04  5.8828398078524576e-04  4.3992320995679614e-04  2.8829389502335275e-04  1.4954249303057672e-04  5.4336090919777530e-06  -1.3489724421721783e-04  -2.6906333324892557e-04  -4.1562826616881141e-04  -5.4156576028617769e-04  -6.7785681799069667e-04  -8.0519218825048046e-04  -9.1983071099986939e-04  -1.0312629813731382e-03  -1.1562721078305302e-03  -1.2639633883168603e-03  -1.3710168720926020e-03  -1.4713075251756248e-03  -1.5842626196526490e-03  -1.6684896777599315e-03  -1.7607232142553752e-03  -1.8387223212003804e-03  -1.9246790627991763e-03  -1.9998201256433614e-03  -2.0607890029331298e-03  -2.1277972895445106e-03  -2.1917754768386796e-03  -2.2495318075894241e-03  -2.2915317529685376e-03  -2.3354673868908903e-03  -2.3692315998097378e-03  -2.3976221844597056e-03  -2.4345907879222404e-03  -2.4435247127788480e-03  -2.4681013898534866e-03  -2.4708525302982757e-03  -2.4805454578900018e-03  8.7733467510300815e-03  8.7743905974264434e-03  8.7778297635798253e-03  8.7598453481846240e-03  8.7039229188396287e-03  8.6308992604935113e-03  8.5508350935701374e-03  8.4480568089902400e-03  8.3280701973634293e-03  8.1894199382689797e-03  8.0379312000013626e-03  7.8525338256668579e-03  7.6546285640282973e-03  7.4437823531669578e-03  7.2166331837639035e-03  6.9721713491156991e-03  6.6966299232657164e-03  6.4323974756334999e-03  6.1450269120631451e-03  5.8224409061957564e-03  5.4973671006710457e-03  5.1695487109248463e-03  4.8075898435392776e-03  4.4279236498302055e-03  4.0530300425368430e-03  3.6474397013069107e-03  3.2553892935689205e-03  2.8358285625543376e-03  2.4045155744441709e-03  1.9667555350753006e-03  1.5147166910114336e-03  1.0624314146000877e-03  5.8757378216632735e-04  1.2340769903124813e-04  -3.5559437148040366e-04  -8.5475121539067161e-04  -1.3369559705650054e-03  -1.8388639516815745e-03  -2.3315627652349250e-03  -2.8358567855250694e-03  -3.3359672019014760e-03  -3.8424654482233445e-03  -4.3476433991009649e-03  -4.8536151347384890e-03  -5.3619412942499346e-03  -5.8649264426028618e-03  -6.3593436733263746e-03  -6.8535646851027691e-03  -7.3319691277210853e-03  -7.8156788395596557e-03  -8.2905040984399166e-03  -8.7560315364277868e-03  -9.2101957653993316e-03  -9.6416625263480368e-03  -1.0075627966150630e-02  -1.0499598284316573e-02  -1.0897852239207547e-02  -1.1286616423316251e-02  -1.1656627112168659e-02  -1.1990451249286200e-02  -1.2327894280967215e-02  -1.2637938285419030e-02  -1.2925814377487627e-02  -1.3185385926015430e-02  -1.3419298169378032e-02  -1.3631488343152073e-02  -1.3820039205106029e-02  -1.3949619311942395e-02  -1.4026947554554059e-02  -1.4107103180073955e-02  -1.4148987157373534e-02  -1.4174198879673727e-02  -1.4169920330375412e-02  -1.4110123287676215e-02  -1.4038897843275420e-02  -1.3912091830091004e-02  -1.3725048036910313e-02  -1.3493514262240798e-02  -1.3258512830390508e-02  -1.2968908665299405e-02  -1.2603541395573759e-02  -1.2241312569827785e-02  -1.1813074773972696e-02  -1.1321109093009010e-02  -1.0798608444365341e-02  -1.0246507377130894e-02  -9.6370164639201037e-03  -8.9853639922053731e-03  -8.2262099126792186e-03  -7.5396006293819038e-03  -6.7864075392197638e-03  -5.9493454484378450e-03  -5.1344422820814896e-03  -4.1918450031594385e-03  -3.3097771323511950e-03  -2.3749640544599728e-03  -1.4539820989593849e-03  -5.1179007754859399e-04  4.4504102485358888e-04  1.4037971408271510e-03  2.3547315579722761e-03  3.2913246543419790e-03  4.1988604376334950e-03  5.0645865509243507e-03  5.9062695838841099e-03  6.6825698451181666e-03  7.3846511141078394e-03  8.0498500368239162e-03  8.5933139851518490e-03  9.1453259875417785e-03  9.4298831076795337e-03  9.7334977358648558e-03  9.8134751629075367e-03  9.8659533863170341e-03  9.7509194144392453e-03  9.5292132886685473e-03  9.1886542898734526e-03  8.7399958478925691e-03  8.1846358697469611e-03  7.5337374972205403e-03  6.8137825774172885e-03  6.0411342787078512e-03  5.2180814206578144e-03  4.3912046646261745e-03  3.5709702132860678e-03  2.7844776746742727e-03  2.0776417599230857e-03  1.4393708765691555e-03  9.1031604957405774e-04  5.1166956315754758e-04  2.3954796912032620e-04  1.1436516313605827e-04  1.5536305380661053e-04  2.9556607964536467e-04  5.9746139974157467e-04  1.0194665543649909e-03  1.5343979454469478e-03  2.1413479010031727e-03  2.8056120596264044e-03  3.4691928444582280e-03  4.1709890180245948e-03  4.8528157710628315e-03  5.4888568880109272e-03  6.0744149601199698e-03  6.5820090732572629e-03  7.0187913827198904e-03  7.2764522852124666e-03  7.4848711473853398e-03  7.6664783413682392e-03  7.6065648157449938e-03  7.3841103587120975e-03  7.1354250803573023e-03  6.8055626743835310e-03  6.3423987817997681e-03  5.7999201973692582e-03  5.2046012577972615e-03  4.5047331532790053e-03  3.7907844386493830e-03  2.9872224610183653e-03  2.1528843819531586e-03  1.2973092833577591e-03  4.1509670545582489e-04  -4.6848212409059001e-04  -1.3515429565974432e-03  -2.2303343574887626e-03  -3.1283765113900878e-03  -3.9808836679379386e-03  -4.8635968454760316e-03  -5.6954538431129870e-03  -6.4607830168674210e-03  -7.2521520985929155e-03  -7.9808354207193018e-03  -8.6884914423201870e-03  -9.3315214409762474e-03  -9.9616579682702371e-03  -1.0536817248003844e-02  -1.1066432059110841e-02  -1.1552749278549615e-02  -1.1997751658176018e-02  -1.2389075761080504e-02  -1.2755107759530147e-02  -1.3057369723424781e-02  -1.3318713572937858e-02  -1.3557598690439784e-02  -1.3743155439976021e-02  -1.3876854186755175e-02  -1.3987441717445565e-02  -1.4062006646282248e-02  -1.4083570597437549e-02  -1.4060907355664275e-02  -1.4038464616442000e-02  -1.3961854908720539e-02  -1.3832980108643840e-02  -1.3717036138932824e-02  -1.3531616495680021e-02  -1.3324686046165131e-02  -1.3094521288683107e-02  -1.2831578852556468e-02  -1.2559934888736678e-02  -1.2246060812866839e-02  -1.1919111468009778e-02  -1.1568222343433328e-02  -1.1201138765683594e-02  -1.0807309411354391e-02  -1.0418645893423775e-02  -1.0004362405973886e-02  -9.5456628114148814e-03  -9.1095436738361044e-03  -8.6464104321372012e-03  -8.1802909262460987e-03  -7.7028464895242729e-03  -7.2130324089949545e-03  -6.7106279190968596e-03  -6.2196534359972881e-03  -5.7089403149835384e-03  -5.2087128859411190e-03  -4.6930103850879043e-03  -4.1704058900319200e-03  -3.6641302171874124e-03  -3.1500163533968906e-03  -2.6363427059399856e-03  -2.1312463652839158e-03  -1.6200871542795337e-03  -1.1173021345208087e-03  -6.1746355210699679e-04  -1.2456862937685744e-04  3.5164224956270253e-04  8.3733501561615814e-04  1.3053212982967631e-03  1.7671884732646671e-03  2.2103929654014001e-03  2.6557250648792628e-03  3.0808352096058618e-03  3.5070331048669533e-03  3.9088482617207305e-03  4.2976061392079549e-03  4.6753554214042465e-03  5.0463257682431444e-03  5.3905123372830332e-03  5.7271036657855949e-03  6.0426364140495322e-03  6.3490211909764047e-03  6.6425916321747897e-03  6.9084899419778649e-03  7.1582813789391629e-03  7.3939272149904341e-03  7.6130822443196498e-03  7.8112671414614877e-03  7.9921231918782080e-03  8.1566179903858650e-03  8.2946612320358784e-03  8.4358476723420447e-03  8.5351329498145837e-03  8.6206135422309295e-03  8.6892330635403182e-03  8.7407158545786522e-03  1.5245338233566559e-03  1.4142438058717159e-03  1.4340391914454704e-03  1.1403705149804727e-03  1.1431835813335174e-03  7.1521117239692410e-04  6.9978482357332440e-04  1.6520200263666496e-04  9.5051916558538764e-05  -4.8513395428950663e-04  -6.6431566637040337e-04  -1.1155924886268234e-03  -1.3570476353830059e-03  -1.7162944709370939e-03  -2.0962164515861432e-03  -2.2748398398749416e-03  -2.7565262831023645e-03  -2.7978561663491853e-03  -1.7714515211978549e-04  -3.2393873662481787e-03  -2.0470245685372035e-04  -2.3146952129386123e-04  -1.2198053952614603e-04  3.8093367746595093e-03  3.2290082023133829e-03  3.8604044309004386e-03  3.3817945127188821e-03  -3.2023823213394535e-03  -9.8070022255758950e-05  -8.5207137654691925e-05  2.5614994947326356e-03  -3.5878232000812376e-03  2.3612631415027346e-03  1.1248783728554812e-05  7.2492534416760934e-06  1.3282789412289917e-03  1.1931836615100173e-03  -7.5347384122401758e-04  -3.5393574410632848e-03  -6.9208105157622267e-04  -6.8055858223395923e-04  4.6023276663348161e-03  7.1538119766075751e-05  5.5756658221002733e-05  -5.2355141735616853e-04  -1.8373561888042458e-04  -4.0797090590185197e-04  -3.8031648047845146e-03  -4.8789935121204190e-04  -2.3914605905889620e-04  -2.3955286605702492e-04  -3.7215948877430513e-03  9.5759502617989779e-05  1.3405825865270564e-04  3.2650287774939140e-03  3.9288739172953389e-03  -3.9666879199408483e-03  7.4672346247927878e-05  6.6925241105647085e-05  5.5515981239788730e-04  -1.6930135814983002e-03  3.8894861114911706e-03  3.2377483722828590e-03  -2.0061621955996005e-03  2.1717644198646717e-03  7.5715985900722774e-04  2.1322094614813900e-04  1.1564889159428118e-04  -3.8498880755164920e-03  3.0678957099078679e-04  -3.9842041787746625e-03  2.3251285523272552e-03  -3.1767008518789105e-03  -3.3629211166880516e-03  3.2503402009528772e-04  -1.3183700525500970e-03  -3.7361431072157961e-03  1.3036236345117867e-03  1.5747601306469901e-03  5.2118479190246412e-04  1.3153538103452263e-04  -2.0455342545298976e-04  -2.7474525139382635e-03  5.4535375792115611e-04  1.5398015527172881e-03  -3.7976968835764335e-03  -4.9600350588166744e-03  -4.5724486802359420e-03  9.8611029509108232e-04  -4.0300854250643039e-05  -1.0083350811241065e-03  9.9021623328411504e-04  -3.1189631023991835e-03  1.3919621489749277e-03  -3.5757412365121041e-03  6.2570791743187546e-04  6.2916933846525371e-04  4.9296864130567945e-04  -4.0756844741209011e-05  4.4780930822298730e-04  -3.5446178146449733e-03  -1.3313696534754964e-03  -1.1255060234642651e-03  -1.2316578987859809e-03  -5.7087450055086607e-03  -9.2508277419188804e-04  -1.1756200856210275e-03  -1.1578077690742030e-03  -6.0307594877117877e-03  -7.4134066215953570e-04  -8.3658337068926022e-04  2.9114350056359795e-03  -1.2919032262284102e-03  -3.3767634519027228e-03  -4.6175504157975446e-03  1.1879492102566028e-04  2.9064608000396105e-03  6.5842898903617757e-04  -5.6373553815217993e-04  -6.0563856061978914e-03  -6.6866572186107661e-03  -2.2215516219735202e-04  4.0766639945278004e-04  5.2215793995751816e-03  -1.1340236660918003e-03  -4.4760826375048720e-03  -3.1787966477995820e-03  9.5671623784570844e-04  1.4338259405579596e-04  -4.7807485637496103e-05  5.8761733837151440e-03  -3.9956993020412299e-04  8.6598213408498547e-04  6.3250494638003097e-04  5.9317683155422031e-03  -7.0776341710696985e-03  5.8328075076633764e-03  5.6491130537585027e-03  -2.9836261799895620e-03  -3.9257170868460631e-04  -5.6361858086780839e-04  -7.6669623750057051e-04  3.9587557465792823e-03  -6.2778991367050288e-05  5.3416399910960356e-03  4.9180673441815244e-03  2.7109039478868561e-04  2.1556269200366384e-03  7.8852043345479454e-04  -9.5919395420580097e-04  8.0882911390261033e-05  -2.9899531454271455e-04  2.6629690690834043e-04  -1.7690541128546523e-04  2.2493084193663714e-04  2.1597132277753056e-04  4.8023477985757665e-03  1.3212303681876247e-04  -3.1764352321058019e-05  -2.6182302444593134e-04  2.8382558538334778e-04  6.0878216366271650e-04  -4.7428788239850913e-04  -6.0394479174120368e-03  5.0664963991277497e-04  2.4756837624390787e-03  4.2180617189713481e-03  3.7661325023165236e-03  1.6992726804481145e-04  2.7642867375923729e-03  2.0036719705210653e-03  -5.2663465766617423e-04  -1.3552348296474795e-03  -4.5277400805519282e-04  -2.7240003426522619e-03  -7.5293563339898549e-03  2.4601875153830590e-04  3.7847228578184424e-04  1.5498536063412002e-03  -1.4804581829297433e-05  2.7656130648350105e-04  5.1479271912484423e-04  5.7880114493347873e-04  1.8419804242478122e-03  2.5338036878266761e-03  1.8837794054323074e-04  1.5312011668728244e-03  1.4689531808154287e-03  2.2663862490070099e-03  -7.7254871682898851e-03  -2.4085689853729857e-03  -6.5202613338764500e-04  4.0325336448871326e-04  3.4695178606389942e-03  2.7892131583115627e-03  -1.6797191219258535e-04  -1.5048260557809163e-03  4.8912386342652204e-06  2.6603059799511545e-03  5.2346562392385711e-04  -1.7197522619487006e-04  2.1058094309254526e-03  3.5258532146914518e-04  -2.2030535632175394e-03  -1.6176329806285273e-03  1.2222066799138257e-03  2.1950534478529617e-04  1.1146084425522178e-03  -1.9925283267329531e-03  1.6591219190655038e-05  -7.4756046983442690e-03  -8.0585531164469287e-04  6.6565774946925754e-04  9.0733270962631719e-04  2.1805909585238584e-04  4.4664808580515628e-04  -2.4124263406094201e-03  5.3556496867953349e-04  4.7177561640392267e-05  -1.6808709070527002e-03  1.6901102957807301e-04  7.5250928342827429e-04  1.0417652031473725e-03  -9.5303745522463566e-04  -1.5051387683742989e-03  -1.6667782823478498e-03  -1.1997893807515439e-03  5.7071801322344101e-03  1.7515253834550382e-03  -7.4520467714235894e-03  -1.3090241088103719e-04  -4.0240269696865803e-04  6.0994440088283849e-03  -1.4880187188941439e-03  1.1688911646047257e-03  -1.2994226526212884e-05  -8.5159916206916460e-04  -1.8777085653431358e-04  3.2923420440736958e-04  -1.3776280548971089e-03  -6.9558855842502760e-03  -1.5396268165535280e-03  3.4056669224469195e-03  -8.2682775008105025e-04  6.5540153833938608e-03  4.7691594046864036e-03  -8.1378122165638236e-03  5.5423666840638324e-04  -7.6356506937271139e-03  -5.3203208995922767e-04  -2.4773209795458835e-03  -2.6082561571407693e-03  -9.5237992901740570e-04  -8.4171101873668536e-05  -1.1346084660190969e-03  -7.0137664981317980e-04  -3.8057240406314171e-05  -5.7486278200321607e-04  -1.2597420312837743e-03  -8.3706857537684826e-03  1.3475091007915376e-03  1.2201208842786227e-03  1.2878670962870502e-03  1.0982578841019163e-03  -6.2694328574583057e-04  8.6318814739870173e-04  -4.5865382335694305e-03  -2.9584109454621806e-03  -6.5515351289483501e-03  -2.7418467399988465e-03  -1.9347861057450945e-03  -2.0026368285073668e-03  -1.2932731984772704e-03  -1.0248739031421556e-03  -5.9492055118884847e-03  1.5557130574905412e-03  -3.3274786756084451e-03  2.6526740233775223e-05  -6.6914856024229852e-03  -8.8451058416366267e-04  -7.3197291723693723e-04  -5.0741528606381022e-04  1.8178374923324541e-04  -7.2431224541850301e-03  -4.0280481885660285e-03  -5.7548241832030081e-04  -9.4692105480995593e-04  -1.4192483692981899e-04  1.2561927913424441e-04  6.3493865138259097e-05  -2.4225862311128602e-03  -2.2198398114019031e-03  -4.8735605300832931e-03  -1.5849803913843114e-03  -3.2325473383467314e-03  4.4455882021581817e-05  -3.9459756330696835e-03  1.2756157845233344e-03  4.6390533021928920e-03  7.2181004081379313e-04  -3.6173302447456606e-03  -1.6094441871853686e-04  -1.4201632