<?xml version="1.0"?>
<VTKFile type="UnstructuredGrid"  version="0.1"  >
<UnstructuredGrid>
<Piece  NumberOfPoints="2446" NumberOfCells="4585">
<Points>
<DataArray  type="Float64"  NumberOfComponents="3"  format="ascii">0 0.41 0  0 0 0  2.2 0 0  2.2 0.41 0  0.2404508497187474 0.2293892626146237 0  0.25 0.2 0  0.2404508497187474 0.1706107373853764 0  0.2154508497187474 0.1524471741852423 0  0.1845491502812526 0.1524471741852423 0  0.1595491502812526 0.1706107373853764 0  0.15 0.2 0  0.1595491502812526 0.2293892626146237 0  0.1845491502812527 0.2475528258147577 0  0.2154508497187474 0.2475528258147577 0  1.1 0 0  1.1 0.41 0  0 0.205 0  0.55 0 0  0.55 0.41 0  0.275 0 0  0.275 0.41 0  1.65 0.41 0  1.65 0 0  0.8250000000000001 0.41 0  0.8250000000000001 0 0  1.375 0 0  1.375 0.41 0  1.925 0 0  1.925 0.41 0  1.5125 0.205 0  1.7875 0.205 0  0.6875 0.205 0  0.9625000000000001 0.205 0  1.2375 0.205 0  2.2 0.205 0  0.4687002074688797 0.2068568464730291 0  1.99375 0.2152743902439024 0  2.0625 0 0  2.0625 0.41 0  2.2 0.3075 0  0.4125 0 0  0.4125 0.41 0  1.7875 0.41 0  1.375 0.1486128048780488 0  1.5125 0 0  1.7875 0 0  1.5125 0.41 0  0.8250000000000001 0.2613871951219511 0  0.9625000000000001 0.41 0  0.9625000000000001 0 0  0.6875 0.41 0  0.6875 0 0  0.1375 0 0  0.1375 0.41 0  1.2375 0 0  1.1 0.1486128048780487 0  1.2375 0.41 0  1.65 0.1486128048780487 0  1.126715909090909 0.2793064024390244 0  1.676715909090909 0.2793064024390244 0  0.8517159090909092 0.1306935975609756 0  1.348284090909091 0.2793064024390244 0  0.34375 0.3032389320646208 0  1.894702181800738 0.1282910975492754 0  2.092797818199262 0.1282910975492754 0  1.85625 0.3075 0  0.61875 0.3075 0  0.61875 0.1025 0  0.3648540804333487 0.1240075933101478 0  0 0.3075 0  0 0.1025 0  2.099172119769978 0.25625 0  0.48125 0.09238439620688085 0  0.5781001037344399 0.2059284232365146 0  0.48125 0.3196743479159776 0  0.7265881057911006 0.3055240343720796 0  1.99375 0.08395950269330846 0  1.459960956013612 0.3075 0  1.569025960719943 0.2986889805672169 0  0.75625 0.08213100772579164 0  1.03125 0.3278689922742084 0  0.923871252904788 0.3078247185783941 0  1.959375 0.3126371951219512 0  1.749222215368287 0.1025 0  1.275777784631713 0.1025 0  2.2 0.1025 0  1.225938124459196 0.3075 0  1.550777784631713 0.1025 0  1.000777784631713 0.1025 0  1.44375 0.07430640243902442 0  1.16875 0.07430640243902437 0  1.899250267340833 0.2229966846119207 0  0.1020898364287272 0.3140258291809757 0  1.766482954545455 0.2934032012195123 0  0.3405058858996321 0.2119987970531874 0  0.7710785630958338 0.1710968191298857 0  1.046078563095834 0.2389031808701144 0  0.2 0.3400647632937836 0  1.421109702350723 0.2261157654379721 0  0.2800464974185557 0.08982544815605742 0  0.098916018031319 0.09171660955420841 0  2.13125 0 0  2.118919042110979 0.3422084711244843 0  1.30625 0.41 0  0.89375 0 0  1.597888256393107 0.2173787389261347 0  0.20625 0 0  1.829299675393195 0.07400700849299596 0  1.71875 0.41 0  1.16875 0.41 0  2.038220665644273 0.332420740103091 0  0.34375 0 0  0.417496017710808 0.2696595573092803 0  0.2 0.07687845740457822 0  0.9295982307099278 0.1343158415898188 0  0.07390688010811153 0.1697064032433452 0  0.5238366813727013 0.2578302467013575 0  0.05452951551825875 0.25625 0  0.5229630068078351 0.1548816096928243 0  1.452769549894695 0.1548122580621249 0  1.369219062229598 0.07430640243902442 0  1.30625 0 0  0.8504409521244898 0.3356935975609756 0  0.8821881244591965 0.205 0  1.720943423819132 0.1714577452753128 0  1.157188124459196 0.205 0  1.094219062229598 0.07430640243902437 0  1.03125 0 0  1.304056576180868 0.1714577452753128 0  1.67579304192913 0.07430640243902437 0  0.2751941921308361 0.3346083473122598 0  1.209670467133757 0.1362100266964769 0  1.025335513626278 0.1700681449722324 0  0.7562500000000001 0.41 0  1.58125 0 0  0.7567170593862014 0.2409196493502535 0  0.6926714215682891 0.1272249611432207 0  0.4139715849905988 0.3397932387114203 0  0.9840787304190477 0.2717749043358119 0  0.06875000000000001 0.41 0  0 0.35875 0  0.9281250000000001 0.06276726142697993 0  0.5507396469029935 0.3219409231578227 0  0.5504468037989405 0.09136885600634273 0  1.58125 0.41 0  1.631724228912893 0.3381867502687533 0  1.825608881788174 0.14499488549201 0  1.85625 0 0  1.44375 0 0  1.44375 0.41 0  1.85625 0.41 0  2.13125 0.41 0  0.7562500000000001 0 0  0.89375 0.41 0  0.4812500000000001 0 0  0.34375 0.41 0  0.4812500000000001 0.41 0  0.20625 0.41 0  0.06875000000000001 0 0  1.16875 0 0  0.61875 0 0  0.61875 0.41 0  1.03125 0.41 0  1.71875 0 0  1.99375 0 0  1.99375 0.41 0  1.340625 0.3489494290853124 0  1.134375 0.3489494290853123 0  1.700180620188976 0.3438659752031281 0  2.135782184673599 0.07126652247502523 0  1.668441847249787 0.2129203728327609 0  1.295782514339747 0.2378437748815763 0  0.8233075729931248 0.06842334294821524 0  1.409375 0.3520314716057996 0  0.403505597322782 0.182067236678212 0  0.378125 0.05794951541303489 0  0.3043468223249023 0.1518321115979534 0  2.129248544730567 0.1906135162504124 0  2.060771381434487 0.1989445750470348 0  2.013252586573865 0.1496169464686054 0  1.942766402200229 0.1734448904596831 0  1.895522487186454 0.06076163953489683 0  2.069553871656643 0.06605731020975725 0  1.274680914880868 0.3520219391081363 0  1.614713220494657 0.09473434380863296 0  0.7899021319497519 0.3149123934144827 0  0.69518737419149 0.0634051089053758 0  0.2971740475496061 0.2592172353407536 0  1.72990325744076 0.2380068107952482 0  1.356580098625191 0.2120393231351682 0  2.034370752044885 0.2668681600792073 0  1.51768709249349 0.3426260931494756 0  1.561883724969884 0.1650446847858835 0  1.197344062229598 0.2523725417393646 0  1.804085235518364 0.3468178408964637 0  1.817887819205233 0.2589243285818559 0  1.905897727272727 0.3485060975609756 0  0.6719798073392919 0.2688965171178177 0  0 0.05125 0  0.653125 0.35875 0  0.6396896119294488 0.1627615407790282 0  0.4274150154087412 0.1242548552168279 0  1.192836486056382 0.3562350748565544 0  0.8279124365364005 0.183856489168822 0  1.097485222388854 0.2083571153401724 0  1.28257088594801 0.2944411014911587 0  1.474860187679412 0.2504218616229368 0  1.406767003493824 0.2829282258560709 0  0.446875 0.04619219810344041 0  0.515625 0.04585361801037557 0  0.592043440706648 0.05125 0  1.845656689180403 0.1998310418452388 0  2.144958525570388 0.2909790873294231 0  0.6171090763650112 0.2492366900333857 0  2.2 0.15375 0  0.5145586920831158 0.3648371739579888 0  1.57794966442982 0.3540357145964566 0  0.721875 0.3633107922168974 0  0.0496154796471391 0.333125 0  0.5843750000000001 0.3662560860076676 0  0.5810878747760798 0.1474002776121195 0  1.508991196088596 0.1421783375065625 0  0.8840670607017558 0.2640994375393898 0  0.09776612425612034 0.2204896805326566 0  1.50436820029908 0.06143401634903343 0  1.223857000523521 0.0823554862453532 0  1.153316824384777 0.1289850171317837 0  2.148922302309752 0.1258841779285271 0  0.309375 0.04312325590431198 0  1.621993280276081 0.2841214267927899 0  1.550118654119087 0.2461998729100966 0  1.327182649291491 0.1216967252533594 0  1.051977450479407 0.1221382572915816 0  1.753125 0.04556020050186112 0  1.271875 0.04556020050186116 0  0.9816084133102366 0.05126138213476004 0  1.039051841454368 0.0572224914831029 0  0.9719230514536006 0.3480477870845102 0  1.94956388244759 0.1180512551534177 0  1.949997712993411 0.04965831614304109 0  1.771961817615021 0.1530278789497521 0  1.909246823951428 0.2812757146784527 0  0.2459536687882397 0.04668633953831142 0  1.948575539857022 0.2445328248721197 0  1.697271520964565 0.1233917627620729 0  0.7964897648514618 0.1211426571931604 0  1.065625 0.3689344961371042 0  1.085849084308977 0.3170853572226867 0  0.4702981435440001 0.260434880697798 0  1.577403511714593 0.05463601888079143 0  0.05622663515370135 0.05493816910862376 0  0.3267207591099919 0.3566194660323104 0  0.9003051618565143 0.3564049499960621 0  1.751571320346033 0.3651102912045228 0  0.1583785085108421 0.2994699345738728 0  0.1455283439499995 0.3542795598723423 0  2.2 0.35875 0  0.2347662494194072 0.298325008655211 0  0.1527284455616188 0.1065771775690181 0  0.1382139529076665 0.05427454456341477 0  0.8749341636311069 0.05110114999892954 0  0.643661668713109 0.05693499781019222 0  1.466879772203159 0.3611261772912453 0  1.990280163552011 0.3564754268533217 0  1.17471064520912 0.2990917256188288 0  0.5202693090594349 0.206382495511728 0  0 0.25625 0  2.2 0.25625 0  2.2 0.05125 0  0 0.15375 0  1.853978576207987 0.35875 0  0.9787513713939683 0.1487523696999336 0  0.240625 0.3722153812029779 0  1.515638456102889 0.2882700110184686 0  0.09048297387599738 0.3637717362208066 0  2.150453692751374 0.2387066338105111 0  1.323782677156475 0.04897634338873398 0  0.8074131292871642 0.3624701995505916 0  1.409375 0.03715320121951221 0  1.406484531114799 0.1087852750766809 0  1.134375 0.03715320121951218 0  1.627401732573545 0.04552157221025036 0  0.1170173172005315 0.1427610859166811 0  2.045405893604797 0.1105340662939892 0  1.255408269734577 0.1577307500159216 0  2.028125 0.03707597992059326 0  0.4743610090857199 0.1421513964721819 0  0.9354010469015898 0.250631300585664 0  0.04420832937638274 0.128125 0  0.8922386349349938 0.0992956419364831 0  0.1197849154434487 0.2663398672460083 0  1.248258025468107 0.2565907092181813 0  0.3746885856929528 0.370723531618974 0  1.203125 0.0366132337404304 0  0.5724622277005015 0.2751253816079333 0  0.3365425205162783 0.08395777655057959 0  2.072662025974815 0.2975086504196739 0  0.4581080832182547 0.3648371739579888 0  0.3874522734668214 0.2295447548840689 0  0.7827853612484443 0.04106550386289586 0  1.887722846421017 0.1760882698830035 0  1.472640588990488 0.1118278026240017 0  1.865937103925594 0.2604137786483804 0  1.463913572748262 0.2030442564990043 0  1.376426316059077 0.3186741374914345 0  0.6641993820150034 0.3141688596240831 0  0.2943117490824315 0.2130987422685822 0  0.3478153998082709 0.1666571081082676 0  0.3427990510599805 0.2575950027870776 0  0.7997118993855807 0.2216171933356366 0  
[...]
<PointData  Scalars="f_9-0"> 
<DataArray  type="Float64"  Name="f_9-0"  format="ascii">3.9947311954679728e-04  1.3612159564484441e-03  2.2309383153405042e-03  2.1082824676138257e-03  1.3692344596326247e-03  2.2256596482301966e-03  2.8201402012795634e-03  2.8568436936212880e-03  2.0788212137194239e-03  1.2159204849515224e-03  8.3447566600457061e-04  7.2192257828545365e-04  6.7258952336651996e-04  7.4972532391485991e-04  2.6604454316977990e-03  2.0018616187183094e-03  6.8665481087274913e-04  5.0701171651265789e-03  5.6055796062243538e-04  5.6893485523667776e-03  4.2051625435327240e-04  2.1647577843003406e-03  2.3969459835233319e-03  1.4090534729923917e-03  3.6399984175449671e-03  2.5012001632381082e-03  2.2104148611466500e-03  2.3082969913021801e-03  2.1263349961394410e-03  2.4782723262092832e-03  2.3416258577617570e-03  4.0902846071923819e-03  1.8978624302967407e-03  2.4575450839045649e-03  2.2663960134670807e-03  8.8213226344510968e-04  2.2678609235226399e-03  2.2644090001608008e-03  2.1226601727505796e-03  2.2114577123957656e-03  5.4359665730426060e-03  4.2818940351494318e-04  2.1501967286225933e-03  2.4120083633860133e-03  2.4425718183012845e-03  2.3496230139635958e-03  2.1724090239935720e-03  1.6732030370877214e-03  1.9423981502590204e-03  3.1590062639069347e-03  7.8990435962797445e-04  4.1692664245352434e-03  4.1758680321548397e-03  4.0699075360219625e-04  2.5832030628589434e-03  2.8294357387184427e-03  2.1904387879729376e-03  2.4083292962150610e-03  2.6776761104899921e-03  2.2135935973560269e-03  1.8323714953185689e-03  2.1819876285822559e-03  6.2062254323578083e-04  2.3631633868268376e-03  2.2870755431886602e-03  2.2473748137737865e-03  2.0092453062816569e-03  4.7453252408775149e-03  4.3762875976509430e-03  4.7344627352907058e-04  9.9877456139477639e-04  2.2035341387567045e-03  4.2451441366201260e-03  2.5011870213640167e-03  4.9070681625930596e-04  2.0163849949814691e-03  2.3167706817140755e-03  2.3060425500355608e-03  2.2534551564721175e-03  3.0304038137379005e-03  2.5376491782764998e-03  2.1009218707231537e-03  2.1756058114248081e-03  2.3904634752843620e-03  2.4511490367518296e-03  2.2620124659347859e-03  2.1633241770167089e-03  2.4922837448833426e-03  3.0340972151531817e-03  2.4990443373779240e-03  2.5665706083551534e-03  2.3450205309920088e-03  4.7796568526861037e-04  2.2513840011329179e-03  2.3314921113799132e-03  2.8846970369518321e-03  2.5282109844480300e-03  4.7300521273611971e-04  2.3262433573528296e-03  5.1657920929959874e-03  5.5452787798902703e-03  2.2420357436623356e-03  2.1607849977761631e-03  2.2138488503525800e-03  3.4826874267942206e-03  2.3781545481604046e-03  5.4356631519792897e-03  2.3589473979039083e-03  2.1616477913329510e-03  2.1039552603353139e-03  2.1496285572269068e-03  5.5943265021469197e-03  7.5562684706502415e-04  6.3049786919612810e-03  2.1027057212307017e-03  8.0866541193381201e-04  8.7327600973227161e-04  5.6618283626315197e-04  2.1113658692922545e-03  2.5062062917726381e-03  2.5168116378685534e-03  2.5473467279019755e-03  1.4253345469766370e-03  1.6250640994843692e-03  2.3488323568072690e-03  2.8435432004780179e-03  2.6750928181135496e-03  2.8319261786037774e-03  2.3127523516510216e-03  2.4106362347848481e-03  4.9825675390042623e-04  2.6359757878336785e-03  2.6989064377164478e-03  1.0305540591816946e-03  2.4200817533522666e-03  3.0791508845507422e-03  4.1006386103643521e-03  4.6277200659436857e-04  2.2726800807366062e-03  4.0090893481075068e-04  4.1827262067420433e-04  3.1748740279948116e-03  8.3272651240360869e-04  4.5187803881421686e-03  2.1644210201994837e-03  2.1794345270756610e-03  2.3801814181599445e-03  2.3281773345102206e-03  2.4662765214708894e-03  2.1934477345125218e-03  2.1366280566876496e-03  2.1153007402037087e-03  3.8188518166336173e-03  1.7691445744150139e-03  5.2980286816734891e-03  4.2278458095525617e-04  4.6555059961108974e-04  4.1372117739143832e-04  2.0533751934915002e-03  2.6084239521987330e-03  4.6454667288304647e-03  6.7693685784539709e-04  1.9660159232123818e-03  2.3731899257963696e-03  2.2865503177330123e-03  2.1246629423329636e-03  2.2291833194733940e-03  2.1543863353026445e-03  2.1897137970974603e-03  2.2654240668679351e-03  2.2963421139744846e-03  2.1907571325999460e-03  2.7337778895375874e-03  2.2480891374247942e-03  2.0676708803938734e-03  5.3629555788675494e-03  3.4315006081883270e-03  2.2541406550293445e-03  2.2403744117662060e-03  2.3019889702837744e-03  2.3457414077547277e-03  2.3355412208955302e-03  2.2863780173949634e-03  2.2016893467833904e-03  2.4483444808874968e-03  1.2834867985674282e-03  4.0603037738492932e-03  1.1918667679483444e-03  2.2700423469346185e-03  2.2253140192780817e-03  2.1867197287923999e-03  2.2276144384298629e-03  2.4968789141753527e-03  2.4609816835713849e-03  2.1978382060472623e-03  2.3072721502922886e-03  2.1618727016000320e-03  3.4252839874018685e-03  1.2014532145914146e-03  1.0193176777081071e-03  4.2419471711821390e-03  3.6692880710343951e-03  2.1221237740585829e-03  2.2275516282549172e-03  2.8699617456573101e-03  2.1715215695402540e-03  2.3829153357469196e-03  2.2548795198077385e-03  5.2281258997763751e-03  5.1008061395814222e-03  4.9475310882407253e-03  2.3662468370123104e-03  2.2105595780868895e-03  3.1616528222627124e-03  2.2744292304867687e-03  5.1604646525822727e-04  2.1794291868865068e-03  9.6090091323353696e-04  4.4381853861465435e-04  7.4631925894886610e-04  3.4529474278127735e-03  2.5241667398417326e-03  1.6003118966177959e-03  6.5709799894351606e-04  2.4733577317194990e-03  2.5180786143613955e-03  2.7099615638813391e-03  2.2788755047860776e-03  5.6809168001098710e-03  2.2213735558059282e-03  2.3891749237544635e-03  2.4103094310827760e-03  2.9234182253260010e-03  2.3731579900148963e-03  2.5420799902033629e-03  3.1650484025935398e-03  2.8947268818063452e-03  2.2823952191082467e-03  2.3407744587931939e-03  2.3161073139461490e-03  2.3774723205305047e-03  2.2640109664350573e-03  5.8962322385695196e-03  2.2820366391427069e-03  2.3967860247876551e-03  2.1823176478261031e-03  2.1450524744392151e-03  2.5662924342957573e-03  6.3325770224393339e-04  2.4439036111525356e-03  1.8189562034420432e-03  4.5705682229850068e-04  1.8495494396054218e-03  2.1801814641732873e-03  5.3593958983001819e-04  4.3776899430288417e-04  2.1433104126529464e-03  5.8203913389025328e-04  6.1621289258384278e-03  6.1894010483417661e-03  3.1814014924833336e-03  4.6237185350729137e-03  2.2276932180523893e-03  2.1359273220574251e-03  2.3062776951435107e-03  1.1821947147110750e-03  5.6223503791848737e-04  2.2473157658810666e-03  2.2415898056524974e-03  8.4571926704201045e-04  2.1702342895085101e-03  2.4638857824375864e-03  4.3570264742761775e-04  2.3342198886923773e-03  4.1978750035630448e-04  2.2354345039270408e-03  2.5330537567073387e-03  1.1942261707940194e-03  2.4935080812109058e-03  2.5088154146654636e-03  2.6077619621928021e-03  2.4189133931597179e-03  3.2116814938369870e-03  2.3020752369222464e-03  2.4727317693626497e-03  2.2865202369399418e-03  2.2417802644071733e-03  1.8992771240537222e-03  1.0928754391533306e-03  2.3072672423261288e-03  5.7389949252128927e-04  2.2312144686020270e-03  4.3659450407608117e-04  2.5692703070068295e-03  1.7057650487788064e-03  5.1949032338415692e-03  2.1753997318768510e-03  4.4715502463386046e-04  1.4655790694068354e-03  3.4278461363589619e-03  2.3712080866253081e-03  2.5145382557766461e-03  2.3141801668827055e-03  2.4485095003972642e-03  2.2392673410177762e-03  2.1302782837334510e-03  2.2816474283204715e-03  3.4584519541040527e-03  1.2966648425360465e-03  2.5990269328138452e-03  2.2323761907739252e-03  2.2918105907330012e-03  2.2600821108219177e-03  3.7205571105897880e-03  3.1299230789567129e-03  2.1736872446611582e-03  2.4924586267102522e-03  2.7637421195245222e-03  2.3515156372749335e-03  3.5826953594416248e-03  2.1241079518338505e-03  2.4643400295440623e-03  3.8343326014980542e-03  3.6291749021432314e-03  2.2562843960203718e-03  6.7411703431726670e-04  2.2163724172652639e-03  2.1779176308580578e-03  2.1197704814651858e-03  2.1382545795622801e-03  3.4198757687460787e-03  3.7454695359790762e-03  2.1644037360476309e-03  2.3818808408724028e-03  2.1660567048763339e-03  4.9796417459192360e-03  2.2210077816809900e-03  2.7197313804649321e-03  2.4538865476688805e-03  2.3795401910026229e-03  2.1668401057957430e-03  1.6101340564649749e-03  2.3850841282332014e-03  2.3885807365932603e-03  1.9650641004195510e-03  2.1854550783306972e-03  2.2419615765348791e-03  2.1275382716430158e-03  3.9948940652236899e-04  4.4794967153992931e-03  1.0227337445642172e-03  1.6959141508665156e-03  1.6936789075751753e-03  2.2743136266241051e-03  2.3566258327383507e-03  2.3571274902121713e-03  2.4311862326574477e-03  2.1342332148974750e-03  1.1263498568544316e-03  4.2641390331713113e-03  2.1426321291315607e-03  2.7107593327271688e-03  2.2155150324983373e-03  2.1724797690285198e-03  3.0375149226216308e-03  4.9055874960208705e-03  4.1066797641605600e-04  2.2811537584792214e-03  1.8850871281834106e-03  2.4609078920891630e-03  2.1746933289028760e-03  2.2635317147264530e-03  2.4704287025071078e-03  5.7388877221334865e-03  2.8626713442475808e-03  1.5250731931943796e-03  2.3049890544779290e-03  2.0349461318484277e-03  5.8920952243615428e-04  5.1699580573478317e-04  3.4824144532491978e-03  2.6220184582356333e-03  1.6522968687671862e-03  2.8436512423135624e-03  2.8388111989749044e-03  8.6714311499333236e-04  2.2738726829848303e-03  2.1996100853209030e-03  2.3023846612647485e-03  1.4214912883479026e-03  2.1302425726708115e-03  2.3377277618394712e-03  2.3183973263602646e-03  2.3369997076585769e-03  2.5033218987777087e-03  2.3996439215296659e-03  2.4010531226055826e-03  2.4236248504341650e-03  1.4954284313510014e-03  1.7385014927933644e-03  6.0813577187873019e-04  4.1099244021006805e-04  2.1319781471301025e-03  2.4770028689358645e-03  4.2671382488876988e-03  2.4958552897736668e-03  4.9670180951275620e-04  5.0786562400803766e-03  5.5723107546460195e-04  2.3762153227152136e-03  3.6522029234202272e-03  2.0095090589251265e-03  1.2702619967653562e-03  2.5088871492982908e-03  7.9483128820871608e-04  2.6029584339231997e-03  2.2370479581183289e-03  2.3017630822334454e-03  2.3164773185662688e-03  4.3901733290556037e-04  4.2701744406577679e-04  2.4039712729649562e-03  4.2185864072274184e-04  3.4233553716575475e-03  1.2368308295725484e-03  3.1418998580813053e-03  2.2768305706244553e-03  4.3364782483489642e-03  5.8432335097562192e-04  1.5634007764821017e-03  1.5956331862162288e-03  5.1409699745735328e-04  2.4469595814538806e-03  2.3213481904052614e-03  2.3034545097394888e-03  2.3838186724689332e-03  2.3900325337780797e-03  2.4783841812207625e-03  2.5197008703623956e-03  2.7585082540440000e-03  2.3702992570244210e-03  2.3343847477415186e-03  2.3286170153316251e-03  2.6724489271168915e-03  4.8617348531979201e-04  2.5915347310940975e-03  2.5066583295050749e-03  2.6658969525920140e-03  4.9227206308215460e-04  2.1993655026354498e-03  2.1915458673871795e-03  9.8271207980129833e-04  4.2382310983456999e-03  8.5930628175867943e-04  1.1225214558820979e-03  7.6555539554640760e-04  2.1684090943145592e-03  2.4438378702647937e-03  2.1808840279961420e-03  4.5315879111682746e-03  2.3385200615676500e-03  1.1996108908509818e-03  2.2049445901108997e-03  2.2229041709476839e-03  2.4796836574722354e-03  2.7728459140894009e-03  2.1933920099837592e-03  2.2270040561174812e-03  2.2574634285307408e-03  2.2184909699387001e-03  2.4660468525815249e-03  2.4973677989778183e-03  2.8653154717669803e-03  2.2673979985789986e-03  4.2987930028437239e-03  2.5098480642030858e-03  2.2254398032285107e-03  3.2712810931658795e-03  3.3828662602946526e-03  3.5763828583399472e-03  3.3929311808610159e-03  2.2656899598068768e-03  2.2828317864628210e-03  2.9675717608053814e-03  2.3141307227101497e-03  2.1310541229535547e-03  2.5113093636033729e-03  2.6018067035775195e-03  1.7049610952414838e-03  2.3721563845565505e-03  2.3724286370347568e-03  2.3782268846315479e-03  5.5416980202960134e-03  4.3440802224511130e-04  2.6466004464145601e-03  2.9522939030445353e-03  2.3407922439513903e-03  2.3002894530114834e-03  2.0840405200738738e-03  2.0488361525195673e-03  2.2185799648009315e-03  2.2135113317052284e-03  2.2293197882302107e-03  2.3714141283211801e-03  2.4358350264920749e-03  2.2777733405591324e-03  2.1562752374665716e-03  1.2107878037839301e-03  6.4060783919725950e-04  2.2805031594061616e-03  3.5454553162799322e-03  5.3784370506556088e-03  5.5148038086940314e-03  5.6126723120584522e-04  8.0960519515099944e-04  1.1650356845082804e-03  1.1894036810586493e-03  2.3772089915916131e-03  2.5607467562722940e-03  1.9932543050085504e-03  4.5619144159006779e-03  3.3688615227309717e-03  4.4091198069710711e-03  2.2672517463227060e-03  2.1636843615623646e-03  2.3004955305984932e-03  2.2703418696359721e-03  2.2203853649475675e-03  2.2078125632753044e-03  2.0508146519428489e-03  2.5866139978365198e-03  5.2292337382243148e-03  2.5240788360319164e-03  2.7232573963044599e-03  2.2340148108030938e-03  2.2521981068362559e-03  2.6276206389758781e-03  2.4823662308459515e-03  2.1822387871225399e-03  2.1572498866872267e-03  1.9769161732832914e-03  2.3617919644066785e-03  8.8670781018555106e-04  2.2023555123314381e-03  3.9646521718039946e-03  2.1111064568011418e-03  3.3356516328175499e-03  4.2416057828021059e-04  5.3707830664974253e-03  4.4004649773507427e-04  3.0773019591602666e-03  4.1757253188666417e-04  5.6279349481333004e-03  4.0336209539022040e-04  4.3977023577365573e-03  3.7132958090839341e-03  5.6649106762990033e-03  6.1744158394781592e-04  5.0568071956680013e-04  4.8758688602881847e-03  5.2072622772668890e-03  7.1663157908584873e-04  2.9843996262031310e-03  2.5972129532113738e-03  2.4083601613268443e-03  2.2975757701215343e-03  2.5678425368986066e-03  2.2754872211348978e-03  2.1246971998726775e-03  2.1730680123814255e-03  2.3133986678881380e-03  2.7648813323726527e-03  2.5137734280201059e-03  2.7834184130393581e-03  4.8931032893352660e-03  2.1714440163996553e-03  2.1666061051466316e-03  2.1642141342200828e-03  2.2581517247039925e-03  2.2921642856659850e-03  2.3191063635762182e-03  6.2612036039842733e-04  2.2688005680875350e-03  2.2150234654829720e-03  2.2382701117167839e-03  2.2192065287375451e-03  2.2973072954084015e-03  5.5732249689406941e-03  3.8804732284460474e-03  2.3727728032910040e-03  2.2440211034052727e-03  2.2264398691958791e-03  2.2014509152318046e-03  2.1909700495462213e-03  1.2756271026334396e-03  2.6623707756157737e-03  2.0569821148812262e-03  6.2057375816004692e-04  5.8890623021394962e-04  2.4214665552070094e-03  7.9013581628136777e-04  2.2735687546969379e-03  2.2899799475885351e-03  2.9784905543031545e-03  8.6033324606989419e-04  2.3101383034080333e-03  5.8124498601075131e-04  2.1697497027970748e-03  2.3469083229441389e-03  2.3626194473725676e-03  4.1345054926743540e-04  2.1623914510267494e-03  6.6883162212419108e-03  2.8679251148362732e-03  3.0197042270185045e-03  1.6579010608700285e-03  2.1665450899261574e-03  2.1601127953651319e-03  2.7247567990972524e-03  2.2138233120024805e-03  2.2089606723670421e-03  2.3394844837117553e-03  2.3260419293429299e-03  2.2324754955183298e-03  4.3247005772213990e-03  1.9691041908973142e-03  2.4962045943722963e-03  2.0022506841105045e-03  2.1887889713307286e-03  2.4658085130402720e-03  2.4256887655311620e-03  2.9650588975171656e-03  2.1349625901663661e-03  1.8481221523540690e-03  2.1698135248723101e-03  1.5853763284774886e-03  4.1308648524935434e-03  5.0984138493576523e-03  4.3058430242311580e-03  2.1673661747956237e-03  2.7140838423707846e-03  2.5047261319395180e-03  5.7617905160893918e-03  2.4871814390706451e-03  2.6188993920117738e-03  4.0380145600568563e-03  3.1922814412613356e-03  2.1415339971169460e-03  2.2165322284004984e-03  2.1575283803076648e-03  2.5770327061175897e-03  1.8754722051325813e-03  2.4318559660807940e-03  2.3338920760013092e-03  2.8101876970882235e-03  2.1586164443482274e-03  6.6323109426073476e-04  2.2604419945484945e-03  4.7196600494548080e-03  2.2863131422669746e-03  2.2457342167066961e-03  2.7073620041546554e-03  2.3533943429771059e-03  2.4881342894381886e-03  2.2778252909460986e-03  2.2835562344486722e-03  2.2366698358216794e-03  2.4544807609742439e-03  2.1276024929443938e-03  1.3109789135317921e-03  1.3658010091439684e-03  2.5162585787382357e-03  2.3483732620483092e-03  2.1981984743211897e-03  5.2479307262573828e-04  4.6299439146284027e-04  2.2034303790187883e-03  5.6839202132213862e-03  4.3493389888187977e-04  5.2797621752410234e-04  2.3267421675976807e-03  8.1597235596953812e-04  2.2219879947223305e-03  5.0384523259195129e-04  2.4955583655224605e-03  2.1479062368608571e-03  1.8575850919971930e-03  6.0832447845999714e-04  8.3322675806025526e-04  5.5299434566337792e-03  2.2764524637277866e-03  1.6424030514984099e-03  2.3472423701322489e-03  2.3883075530875208e-03  2.4406624310742892e-03  2.2719229662972414e-03  2.2576973632780131e-03  2.7285809973682539e-03  4.8738102176215589e-03  2.8844605562747703e-03  2.8880436116586424e-03  1.8841587615861738e-03  2.2238172156867210e-03  4.1812357319473701e-03  2.2524815867157092e-03  2.3351101626473657e-03  2.1861673388615418e-03  3.0694729719385264e-03  4.4313175345830772e-04  4.8421087002884769e-04  2.3145514043001417e-03  1.8026165273858012e-03  2.2777598980767383e-03  2.3790508444225039e-03  2.3442686603563456e-03  2.4353912093184474e-03  2.4762586573471522e-03  2.1986984705770871e-03  3.5267806932505548e-03  3.6432697184265879e-03  2.4181915265996611e-03  3.0367546833036932e-03  1.8737886001033437e-03  2.2109894956573082e-03  2.2835962124138336e-03  1.1094209198391144e-03  2.6418879426092874e-03  2.3640711717754625e-03  2.0964153172878795e-03  3.5370795117287833e-03  2.4336541066341715e-03  1.3802098320492987e-03  2.2702850123914602e-03  4.9522497018078722e-04  2.1696028004266330e-03  2.1728535559676168e-03  1.3783091743582736e-03  2.2101130988837043e-03  9.3707652075149977e-04  2.3881322282921875e-03  1.5032215983557108e-03  2.3862617858709688e-03  4.8557797486742365e-03  3.0964075684664482e-03  2.1277599959719055e-03  2.8202095989959520e-03  2.0164191493093728e-03  4.9609295905569811e-03  2.5214595240255662e-03  2.1927056244398142e-03  4.8413826211459957e-03  2.6102639744228634e-03  2.6429966880145580e-03  4.9235064881939230e-03  6.2869060784173701e-04  2.1610160228266078e-03  2.1869405381628386e-03  2.2155121034859704e-03  2.2094968834668145e-03  5.3873229939133550e-04  2.3434189406495772e-03  2.1527122362475525e-03  2.9022533127183413e-03  2.5495308678934341e-03  2.3713803191026941e-03  2.3585537007090878e-03  2.4724725851122602e-03  3.8710738075841186e-03  2.6970280001671204e-03  2.6212264193646246e-03  5.4404466779831148e-03  2.2512875707764936e-03  2.1430353796223233e-03  2.6226501770809717e-03  2.4239329985030274e-03  1.4869053774214513e-03  4.6893597480593261e-04  4.6988877370500952e-04  2.4993552693418066e-03  4.3034839333035476e-03  6.0638513278435868e-03  2.0370823522020982e-03  4.1475909049501502e-04  5.7488932787614910e-03  2.6020822165486505e-03  4.2887660109573327e-04  3.1527295713730348e-03  2.2730638120298575e-03  7.1909941549159649e-04  6.2528143867569992e-04  2.2051933751774896e-03  2.1743697881107904e-03  6.1876048867094907e-04  2.3503413352387302e-03  4.7561620291624495e-04  1.0526209589853982e-03  4.4166642823236841e-04  4.6059782057999738e-04  6.0212869043719947e-03  7.3963542870793065e-03  2.3490105531896984e-03  2.2142417819887824e-03  1.3225503597833824e-03  2.4411959148960328e-03  2.3166072334837896e-03  2.3803187501811201e-03  2.2217967144555805e-03  2.5420698202031863e-03  2.4308575506135060e-03  2.3605291595147244e-03  6.0538882324457494e-04  2.1836589297840703e-03  2.3266328093127981e-03  2.3099798190617553e-03  4.8561051385228828e-04  2.6089030063469114e-03  2.1924773909736289e-03  2.6215992591850203e-03  2.3867570345489594e-03  2.1242858392531666e-03  2.2909558059852719e-03  1.7508957866075780e-03  5.1507686301397937e-03  2.3728904642765997e-03  5.6422697889838436e-03  2.1729910099907521e-03  1.7758716503543082e-03  6.1191402682462821e-04  2.2640235793710277e-03  2.552114532878870