<?xml version="1.0"?>
<VTKFile type="UnstructuredGrid"  version="0.1"  >
<UnstructuredGrid>
<Piece  NumberOfPoints="2446" NumberOfCells="4585">
<Points>
<DataArray  type="Float64"  NumberOfComponents="3"  format="ascii">0 0.41 0  0 0 0  2.2 0 0  2.2 0.41 0  0.2404508497187474 0.2293892626146237 0  0.25 0.2 0  0.2404508497187474 0.1706107373853764 0  0.2154508497187474 0.1524471741852423 0  0.1845491502812526 0.1524471741852423 0  0.1595491502812526 0.1706107373853764 0  0.15 0.2 0  0.1595491502812526 0.2293892626146237 0  0.1845491502812527 0.2475528258147577 0  0.2154508497187474 0.2475528258147577 0  1.1 0 0  1.1 0.41 0  0 0.205 0  0.55 0 0  0.55 0.41 0  0.275 0 0  0.275 0.41 0  1.65 0.41 0  1.65 0 0  0.8250000000000001 0.41 0  0.8250000000000001 0 0  1.375 0 0  1.375 0.41 0  1.925 0 0  1.925 0.41 0  1.5125 0.205 0  1.7875 0.205 0  0.6875 0.205 0  0.9625000000000001 0.205 0  1.2375 0.205 0  2.2 0.205 0  0.4687002074688797 0.2068568464730291 0  1.99375 0.2152743902439024 0  2.0625 0 0  2.0625 0.41 0  2.2 0.3075 0  0.4125 0 0  0.4125 0.41 0  1.7875 0.41 0  1.375 0.1486128048780488 0  1.5125 0 0  1.7875 0 0  1.5125 0.41 0  0.8250000000000001 0.2613871951219511 0  0.9625000000000001 0.41 0  0.9625000000000001 0 0  0.6875 0.41 0  0.6875 0 0  0.1375 0 0  0.1375 0.41 0  1.2375 0 0  1.1 0.1486128048780487 0  1.2375 0.41 0  1.65 0.1486128048780487 0  1.126715909090909 0.2793064024390244 0  1.676715909090909 0.2793064024390244 0  0.8517159090909092 0.1306935975609756 0  1.348284090909091 0.2793064024390244 0  0.34375 0.3032389320646208 0  1.894702181800738 0.1282910975492754 0  2.092797818199262 0.1282910975492754 0  1.85625 0.3075 0  0.61875 0.3075 0  0.61875 0.1025 0  0.3648540804333487 0.1240075933101478 0  0 0.3075 0  0 0.1025 0  2.099172119769978 0.25625 0  0.48125 0.09238439620688085 0  0.5781001037344399 0.2059284232365146 0  0.48125 0.3196743479159776 0  0.7265881057911006 0.3055240343720796 0  1.99375 0.08395950269330846 0  1.459960956013612 0.3075 0  1.569025960719943 0.2986889805672169 0  0.75625 0.08213100772579164 0  1.03125 0.3278689922742084 0  0.923871252904788 0.3078247185783941 0  1.959375 0.3126371951219512 0  1.749222215368287 0.1025 0  1.275777784631713 0.1025 0  2.2 0.1025 0  1.225938124459196 0.3075 0  1.550777784631713 0.1025 0  1.000777784631713 0.1025 0  1.44375 0.07430640243902442 0  1.16875 0.07430640243902437 0  1.899250267340833 0.2229966846119207 0  0.1020898364287272 0.3140258291809757 0  1.766482954545455 0.2934032012195123 0  0.3405058858996321 0.2119987970531874 0  0.7710785630958338 0.1710968191298857 0  1.046078563095834 0.2389031808701144 0  0.2 0.3400647632937836 0  1.421109702350723 0.2261157654379721 0  0.2800464974185557 0.08982544815605742 0  0.098916018031319 0.09171660955420841 0  2.13125 0 0  2.118919042110979 0.3422084711244843 0  1.30625 0.41 0  0.89375 0 0  1.597888256393107 0.2173787389261347 0  0.20625 0 0  1.829299675393195 0.07400700849299596 0  1.71875 0.41 0  1.16875 0.41 0  2.038220665644273 0.332420740103091 0  0.34375 0 0  0.417496017710808 0.2696595573092803 0  0.2 0.07687845740457822 0  0.9295982307099278 0.1343158415898188 0  0.07390688010811153 0.1697064032433452 0  0.5238366813727013 0.2578302467013575 0  0.05452951551825875 0.25625 0  0.5229630068078351 0.1548816096928243 0  1.452769549894695 0.1548122580621249 0  1.369219062229598 0.07430640243902442 0  1.30625 0 0  0.8504409521244898 0.3356935975609756 0  0.8821881244591965 0.205 0  1.720943423819132 0.1714577452753128 0  1.157188124459196 0.205 0  1.094219062229598 0.07430640243902437 0  1.03125 0 0  1.304056576180868 0.1714577452753128 0  1.67579304192913 0.07430640243902437 0  0.2751941921308361 0.3346083473122598 0  1.209670467133757 0.1362100266964769 0  1.025335513626278 0.1700681449722324 0  0.7562500000000001 0.41 0  1.58125 0 0  0.7567170593862014 0.2409196493502535 0  0.6926714215682891 0.1272249611432207 0  0.4139715849905988 0.3397932387114203 0  0.9840787304190477 0.2717749043358119 0  0.06875000000000001 0.41 0  0 0.35875 0  0.9281250000000001 0.06276726142697993 0  0.5507396469029935 0.3219409231578227 0  0.5504468037989405 0.09136885600634273 0  1.58125 0.41 0  1.631724228912893 0.3381867502687533 0  1.825608881788174 0.14499488549201 0  1.85625 0 0  1.44375 0 0  1.44375 0.41 0  1.85625 0.41 0  2.13125 0.41 0  0.7562500000000001 0 0  0.89375 0.41 0  0.4812500000000001 0 0  0.34375 0.41 0  0.4812500000000001 0.41 0  0.20625 0.41 0  0.06875000000000001 0 0  1.16875 0 0  0.61875 0 0  0.61875 0.41 0  1.03125 0.41 0  1.71875 0 0  1.99375 0 0  1.99375 0.41 0  1.340625 0.3489494290853124 0  1.134375 0.3489494290853123 0  1.700180620188976 0.3438659752031281 0  2.135782184673599 0.07126652247502523 0  1.668441847249787 0.2129203728327609 0  1.295782514339747 0.2378437748815763 0  0.8233075729931248 0.06842334294821524 0  1.409375 0.3520314716057996 0  0.403505597322782 0.182067236678212 0  0.378125 0.05794951541303489 0  0.3043468223249023 0.1518321115979534 0  2.129248544730567 0.1906135162504124 0  2.060771381434487 0.1989445750470348 0  2.013252586573865 0.1496169464686054 0  1.942766402200229 0.1734448904596831 0  1.895522487186454 0.06076163953489683 0  2.069553871656643 0.06605731020975725 0  1.274680914880868 0.3520219391081363 0  1.614713220494657 0.09473434380863296 0  0.7899021319497519 0.3149123934144827 0  0.69518737419149 0.0634051089053758 0  0.2971740475496061 0.2592172353407536 0  1.72990325744076 0.2380068107952482 0  1.356580098625191 0.2120393231351682 0  2.034370752044885 0.2668681600792073 0  1.51768709249349 0.3426260931494756 0  1.561883724969884 0.1650446847858835 0  1.197344062229598 0.2523725417393646 0  1.804085235518364 0.3468178408964637 0  1.817887819205233 0.2589243285818559 0  1.905897727272727 0.3485060975609756 0  0.6719798073392919 0.2688965171178177 0  0 0.05125 0  0.653125 0.35875 0  0.6396896119294488 0.1627615407790282 0  0.4274150154087412 0.1242548552168279 0  1.192836486056382 0.3562350748565544 0  0.8279124365364005 0.183856489168822 0  1.097485222388854 0.2083571153401724 0  1.28257088594801 0.2944411014911587 0  1.474860187679412 0.2504218616229368 0  1.406767003493824 0.2829282258560709 0  0.446875 0.04619219810344041 0  0.515625 0.04585361801037557 0  0.592043440706648 0.05125 0  1.845656689180403 0.1998310418452388 0  2.144958525570388 0.2909790873294231 0  0.6171090763650112 0.2492366900333857 0  2.2 0.15375 0  0.5145586920831158 0.3648371739579888 0  1.57794966442982 0.3540357145964566 0  0.721875 0.3633107922168974 0  0.0496154796471391 0.333125 0  0.5843750000000001 0.3662560860076676 0  0.5810878747760798 0.1474002776121195 0  1.508991196088596 0.1421783375065625 0  0.8840670607017558 0.2640994375393898 0  0.09776612425612034 0.2204896805326566 0  1.50436820029908 0.06143401634903343 0  1.223857000523521 0.0823554862453532 0  1.153316824384777 0.1289850171317837 0  2.148922302309752 0.1258841779285271 0  0.309375 0.04312325590431198 0  1.621993280276081 0.2841214267927899 0  1.550118654119087 0.2461998729100966 0  1.327182649291491 0.1216967252533594 0  1.051977450479407 0.1221382572915816 0  1.753125 0.04556020050186112 0  1.271875 0.04556020050186116 0  0.9816084133102366 0.05126138213476004 0  1.039051841454368 0.0572224914831029 0  0.9719230514536006 0.3480477870845102 0  1.94956388244759 0.1180512551534177 0  1.949997712993411 0.04965831614304109 0  1.771961817615021 0.1530278789497521 0  1.909246823951428 0.2812757146784527 0  0.2459536687882397 0.04668633953831142 0  1.948575539857022 0.2445328248721197 0  1.697271520964565 0.1233917627620729 0  0.7964897648514618 0.1211426571931604 0  1.065625 0.3689344961371042 0  1.085849084308977 0.3170853572226867 0  0.4702981435440001 0.260434880697798 0  1.577403511714593 0.05463601888079143 0  0.05622663515370135 0.05493816910862376 0  0.3267207591099919 0.3566194660323104 0  0.9003051618565143 0.3564049499960621 0  1.751571320346033 0.3651102912045228 0  0.1583785085108421 0.2994699345738728 0  0.1455283439499995 0.3542795598723423 0  2.2 0.35875 0  0.2347662494194072 0.298325008655211 0  0.1527284455616188 0.1065771775690181 0  0.1382139529076665 0.05427454456341477 0  0.8749341636311069 0.05110114999892954 0  0.643661668713109 0.05693499781019222 0  1.466879772203159 0.3611261772912453 0  1.990280163552011 0.3564754268533217 0  1.17471064520912 0.2990917256188288 0  0.5202693090594349 0.206382495511728 0  0 0.25625 0  2.2 0.25625 0  2.2 0.05125 0  0 0.15375 0  1.853978576207987 0.35875 0  0.9787513713939683 0.1487523696999336 0  0.240625 0.3722153812029779 0  1.515638456102889 0.2882700110184686 0  0.09048297387599738 0.3637717362208066 0  2.150453692751374 0.2387066338105111 0  1.323782677156475 0.04897634338873398 0  0.8074131292871642 0.3624701995505916 0  1.409375 0.03715320121951221 0  1.406484531114799 0.1087852750766809 0  1.134375 0.03715320121951218 0  1.627401732573545 0.04552157221025036 0  0.1170173172005315 0.1427610859166811 0  2.045405893604797 0.1105340662939892 0  1.255408269734577 0.1577307500159216 0  2.028125 0.03707597992059326 0  0.4743610090857199 0.1421513964721819 0  0.9354010469015898 0.250631300585664 0  0.04420832937638274 0.128125 0  0.8922386349349938 0.0992956419364831 0  0.1197849154434487 0.2663398672460083 0  1.248258025468107 0.2565907092181813 0  0.3746885856929528 0.370723531618974 0  1.203125 0.0366132337404304 0  0.5724622277005015 0.2751253816079333 0  0.3365425205162783 0.08395777655057959 0  2.072662025974815 0.2975086504196739 0  0.4581080832182547 0.3648371739579888 0  0.3874522734668214 0.2295447548840689 0  0.7827853612484443 0.04106550386289586 0  1.887722846421017 0.1760882698830035 0  1.472640588990488 0.1118278026240017 0  1.865937103925594 0.2604137786483804 0  1.463913572748262 0.2030442564990043 0  1.376426316059077 0.3186741374914345 0  0.6641993820150034 0.3141688596240831 0  0.2943117490824315 0.2130987422685822 0  0.3478153998082709 0.1666571081082676 0  0.3427990510599805 0.2575950027870776 0  0.7997118993855807 0.2216171933356366 0  
[...]
<PointData  Scalars="f_9-0"> 
<DataArray  type="Float64"  Name="f_9-0"  format="ascii">2.4274318814281227e-04  1.1586181292696574e-03  2.0565210873794461e-03  1.8424469262013018e-03  1.0995448915058835e-03  1.9533600794040037e-03  2.5009382233827002e-03  2.6310254985342347e-03  2.0001801748275746e-03  1.1242845865636285e-03  6.8756188086172845e-04  5.5372878799669358e-04  4.9665092385839133e-04  5.3544850940391250e-04  2.5746896512706817e-03  1.8891337742615319e-03  5.0742189548435537e-04  4.7407789572155397e-03  3.4978156840793868e-04  5.4610358179496988e-03  2.6190466429960906e-04  1.9804381108319510e-03  2.2374635426994933e-03  1.3512919954750439e-03  3.6114238415797047e-03  2.3289826629580685e-03  1.9950025273384681e-03  2.1490347940052892e-03  1.9219263015819669e-03  2.2251083880069581e-03  2.2157922603052048e-03  2.0004439093750555e-03  2.8911368654014977e-03  1.9744472512534489e-03  2.1156617851688189e-03  2.4625027988231071e-03  2.0649944042273774e-03  2.0940493866142269e-03  1.8859158952092882e-03  1.9711438457875432e-03  5.3041692174223458e-03  2.7774908514157786e-04  1.9399053139840076e-03  2.4163829989478128e-03  2.2835022002618598e-03  2.1929107658817835e-03  1.9906154254687482e-03  1.7154166691740226e-03  1.5294263165934459e-03  2.7714416335480681e-03  7.1460288103214410e-04  4.1056694313036423e-03  3.9979540640104850e-03  2.4926707717506171e-04  2.4430752169328196e-03  2.4878768897184330e-03  2.0281290419203292e-03  2.2262973786504980e-03  1.9138835798914924e-03  2.0942547703614628e-03  2.5293911856830850e-03  2.2017140420757301e-03  3.7326118518357356e-04  2.1764883747304193e-03  2.1337042410062347e-03  1.9963037473042090e-03  1.2404422261407572e-03  3.8376219259552069e-03  3.4174979042669099e-03  3.0999059739173423e-04  8.0433175227482732e-04  2.0947332149212450e-03  4.7948374679996986e-03  3.9481744894901494e-03  5.6808678154331518e-04  7.7062076041559883e-04  2.1511663879131187e-03  2.0759804919923894e-03  2.0212840625311928e-03  2.6714719110590124e-03  1.9515686273064376e-03  2.6546573286438395e-03  1.9835642965387859e-03  2.2377137121657419e-03  2.4008935098412446e-03  2.0982727261872119e-03  2.0309754206545702e-03  2.2742072427383189e-03  2.5607747911014327e-03  2.3379008642474795e-03  2.3361392916188407e-03  2.0805162730767957e-03  3.1614836581493339e-04  2.0989573796149140e-03  1.2188394046019084e-03  1.1789431984399030e-03  2.7206765540669265e-03  3.0682325411191924e-04  2.3446674125339561e-03  4.6743829338113229e-03  5.4325146219755633e-03  2.0689376820928192e-03  1.9497810160186582e-03  2.0156353895033909e-03  3.1417657045673315e-03  2.1067315360314498e-03  5.2191933162244394e-03  2.2031964255588713e-03  1.9613608403535477e-03  2.0064884031954821e-03  1.9874387356575577e-03  5.4156183260612011e-03  4.8812989312080628e-04  6.0580618717256752e-03  3.0793428413037104e-03  6.4179180711222770e-04  2.7411515102625452e-03  3.9700800762455861e-04  4.2284029054766156e-03  2.3974834964459071e-03  2.3666189951121672e-03  2.3655859155866168e-03  1.9948722896192591e-03  2.0296844690513554e-03  2.2365948034682426e-03  2.0692104710926880e-03  2.3377734509642686e-03  2.6153873031108145e-03  2.2885378561104727e-03  2.2478260151335191e-03  3.2056164365575578e-04  2.1396619307589900e-03  2.7980001616337777e-03  1.0630992660673848e-03  2.2618112521906953e-03  9.8851477464654766e-04  1.9275273211691738e-03  3.1002103948416659e-04  2.8424326755134700e-03  2.4404035487587448e-04  2.5977898375529094e-04  3.0746716150599502e-03  1.0029653029658267e-03  4.8309154154970915e-03  1.9902194408986940e-03  2.0290444611478810e-03  2.2205065956506153e-03  2.1721017910029919e-03  2.3043486327304539e-03  1.9878730687526614e-03  1.9294935491936751e-03  1.8582066859200667e-03  3.9264520512019745e-03  1.4681058091306984e-03  5.0971903392316295e-03  2.6767895017406609e-04  3.0297872158812272e-04  2.5501863533101320e-04  1.8637175961225289e-03  2.5274454425705008e-03  4.3656195095471842e-03  4.5700140407219553e-04  1.6791051440836599e-03  2.2138468498392738e-03  2.1213782999523804e-03  1.9097360921084313e-03  2.0996684144752678e-03  1.9221915732141252e-03  2.0295880524379361e-03  2.0942737545560212e-03  2.1564902008054626e-03  2.0827396159210708e-03  3.4128526540030866e-03  2.0440764049531315e-03  1.6545651234739166e-03  5.0854827985608152e-03  2.7880981778258930e-03  2.1329378164445297e-03  2.1137687043487506e-03  2.1328512555113008e-03  2.1130450318215584e-03  2.1770109146195147e-03  2.1154153296042014e-03  2.0889296252401910e-03  2.2577764381857203e-03  1.3891780570589624e-03  3.3015176504881030e-03  7.6717261305546478e-04  2.1737829922500200e-03  2.3153661856934412e-03  2.0561995273471558e-03  2.0005251467499095e-03  2.2155574966314906e-03  1.9239781378302034e-03  1.9785475885939962e-03  2.1218152012477550e-03  1.9479257065767733e-03  1.5240863472913424e-03  1.0012328682634196e-03  5.2042891805516474e-04  3.0546501432993927e-03  3.5973923073565435e-03  2.0374413094856165e-03  1.4861966303644297e-03  2.4637695199423047e-03  2.0721428455487082e-03  2.1942186004753135e-03  2.2243939144079563e-03  5.1738140719162842e-03  5.0059889120147982e-03  4.4855659148412353e-03  2.1755213558178146e-03  2.0447291312797955e-03  2.8780169285868929e-03  2.1172878394421163e-03  3.9074695883253467e-04  2.0067143580585348e-03  8.0282525330539929e-04  2.8346554510472308e-04  4.5359402540155031e-04  4.3491570792456901e-03  2.3158026961472653e-03  2.3142134625358779e-03  4.8789706864221761e-04  2.2979814902820399e-03  2.3870260957414846e-03  2.2136892287876659e-03  2.1181870427547009e-03  5.3930388199117420e-03  2.0523660668415309e-03  2.0729229560833081e-03  2.4086837850117856e-03  2.4824610977015583e-03  2.2139014840543707e-03  2.4227745725569970e-03  2.6862896465665292e-03  2.4638934924808890e-03  1.9927022194669336e-03  2.1577182852692959e-03  2.1551479984983253e-03  2.2433192935835209e-03  1.9983684513942826e-03  5.6283269372800768e-03  2.0279707588939768e-03  2.2496000926734540e-03  1.9604095972985294e-03  1.7502432954360338e-03  1.8466285381132477e-03  1.3213617569255173e-03  2.2704840546757892e-03  1.6268352472256892e-03  2.8793446589938173e-04  1.9608356807774502e-03  1.9813817034820018e-03  3.6903038947555062e-04  2.7767101841978653e-04  1.8766382927744103e-03  3.9875271664127870e-04  6.1031265594439646e-03  6.0175275178520329e-03  3.4184071804685004e-03  3.9016770240603059e-03  1.9992934204988259e-03  1.9489915000392999e-03  1.9600139759670689e-03  3.6393924973256507e-03  3.9155192397132303e-04  2.0698323863386102e-03  2.0720700430038263e-03  6.5839018593138099e-04  1.9470418818050928e-03  2.8783234906477038e-03  2.7274424836091311e-04  2.0384783997847130e-03  2.6157198634738587e-04  2.1115689359701138e-03  2.3748617010738585e-03  1.4098693759328840e-03  2.3262803916047751e-03  2.3896044571054681e-03  2.4838874848962579e-03  2.2548718630403292e-03  3.2021814116857698e-03  2.1418806074109996e-03  2.1774022334506266e-03  2.1182713097378410e-03  3.7316003222219560e-03  2.6116809106002427e-03  9.1141475217957832e-04  3.2665617429697359e-03  4.0731670997592708e-04  1.9641321305609934e-03  2.7909548896693875e-04  2.4803829920305095e-03  2.5430372335292399e-03  4.6443019074022384e-03  2.0452016984291938e-03  3.1779888042518696e-04  6.8875585547375866e-04  3.6833274279919185e-03  2.1519543008010722e-03  2.3531783533051217e-03  2.0589389569713392e-03  2.3374615670308675e-03  2.1571105278756341e-03  7.8065556561888116e-04  1.6585593446302154e-03  2.1029058712499771e-03  6.6613499552705476e-04  1.2183439228575174e-03  2.1155625937829721e-03  2.1698829806606865e-03  2.0873736471471315e-03  1.4451960391402420e-03  1.5407992500696317e-03  2.9463921423366472e-03  2.5060494980141761e-03  2.2415497612479430e-03  2.4010073979943026e-03  3.2102966028189112e-03  1.8990153476095588e-03  2.2242320349114852e-03  2.9741744590369421e-03  1.2558928659777439e-03  2.0445839939229032e-03  4.9777442979588311e-04  2.0318220680484917e-03  1.9431684744047448e-03  1.8719611596657931e-03  1.9262922059719693e-03  3.2449292084340909e-03  3.6883924501430131e-03  1.9865646179955073e-03  2.2292452488920874e-03  2.0155640053993976e-03  4.7838171791841902e-03  2.2946620725306506e-03  2.0115951569232358e-03  2.2938625836509208e-03  2.1636918352908202e-03  1.9913971925458211e-03  1.4275599120185901e-03  2.2252465368274113e-03  2.2271371089512605e-03  1.5914284026185002e-03  1.6802440138500129e-03  2.0694825423309979e-03  1.8695599573470504e-03  2.4276937372376341e-04  2.9390791022729690e-03  1.0912260351361629e-03  2.7285141330522585e-03  2.4782415972861294e-03  2.0920826112618986e-03  2.2004194012329417e-03  2.1942541078855131e-03  2.2729029111460608e-03  1.9359765945078122e-03  1.1829827223589461e-03  3.9740360040157142e-03  1.9333869364498129e-03  2.5016896284943474e-03  2.0568767302709106e-03  2.0025255494237081e-03  2.8400675584197548e-03  4.7267349336128769e-03  2.5235349415135392e-04  2.1371646639680268e-03  1.5069087335373170e-03  2.1525303679368244e-03  2.0596766497323377e-03  2.1351412882176938e-03  2.3057792233319003e-03  5.5373118680145748e-03  2.7076008759715007e-03  2.5690376127764218e-03  2.0516699638587605e-03  1.2365435843364552e-03  3.5540226104003431e-04  4.0609047153616576e-04  1.1548452819471258e-03  2.2694320057311283e-03  1.8279561404275196e-03  2.0764233364341067e-03  2.2790284904931897e-03  7.3493755845113621e-04  2.1283611660438380e-03  2.1492107802936118e-03  2.1380429813408824e-03  2.2451874493672266e-03  1.9258888470677533e-03  2.1826458753338353e-03  2.1612269851175900e-03  2.1708336472385454e-03  2.3070766424247570e-03  2.2417458539106708e-03  2.2393217710956026e-03  2.2518504670177657e-03  1.2953787172292983e-03  2.4497671450761987e-03  3.9067802667453578e-04  2.5328928723164425e-04  1.9248534847645764e-03  2.4180599597326980e-03  2.0473635133787665e-03  2.4179438174000930e-03  3.3273425247442662e-04  4.7764043817246507e-03  3.8420972600656009e-04  2.2197832000677639e-03  2.2420603965420060e-03  1.7482754825773744e-03  6.1115875350534481e-04  2.3295731238554482e-03  6.1003767433066174e-04  1.9207335541260506e-03  3.2285894916725937e-03  2.1346537179077123e-03  2.1990172738499385e-03  2.7498685940889622e-04  2.6678454377202388e-04  2.1118024259349326e-03  2.6462690763339884e-04  3.8433421947808334e-03  3.4521514370730363e-03  4.5398723851828087e-03  4.2593932718247244e-03  3.5988969271970512e-03  1.3511482526700352e-03  3.6552118710796349e-03  1.6563735672763815e-03  3.4757809597234159e-04  2.2826275125695183e-03  2.2212584929919275e-03  2.0964813206052536e-03  2.2482067550712772e-03  2.3614821157010761e-03  2.3991179795804967e-03  2.3452351173289675e-03  2.3858413842094022e-03  2.2325074732028431e-03  2.3896640710581165e-03  2.1319125281219495e-03  2.5603456046305942e-03  3.0577764739927468e-04  2.2442832612376115e-03  2.2851400019804251e-03  2.4891774210410817e-03  3.1997674215268244e-04  2.0300961665174941e-03  2.0566668641516543e-03  4.8445330380689352e-04  4.1005292698455013e-03  6.0042036053285536e-04  9.2623267716232494e-04  2.6812244329707676e-03  1.9994051903150117e-03  2.1697776683613618e-03  1.9940990129557325e-03  2.6908953257807227e-03  2.1825570974975225e-03  9.2288943324274808e-04  2.0901767377258626e-03  2.0718386352559003e-03  2.4078167283981176e-03  2.3521987060028293e-03  2.0553836714611046e-03  2.1197385782135234e-03  2.1267454834395165e-03  2.0274640256425177e-03  2.2816290337922935e-03  2.8938768896334772e-03  2.6371689948875691e-03  2.9346296279495095e-03  3.9677016930163480e-03  2.3519424024506285e-03  1.8214649837051393e-03  2.8583912546745779e-03  3.1473354299238030e-03  3.3802782208098804e-03  3.5657610993913092e-03  2.0984153756055559e-03  2.1160850341248169e-03  2.6039284541515221e-03  2.0669172859707923e-03  1.8931149412372123e-03  8.9955370896401346e-04  1.9374354004914219e-03  2.5582244088551290e-03  2.2002223222911230e-03  2.2299090028344857e-03  3.4310794838651138e-03  5.2472377831243268e-03  2.8716055705881022e-04  3.1374951007187074e-03  1.9277540592268190e-03  2.7375218774340149e-03  1.4523602024761478e-03  1.9974249413832823e-03  1.9633108579847616e-03  2.0596561578144798e-03  2.0023090841240591e-03  2.0342145446664989e-03  1.9051722174930601e-03  2.4018699597355858e-03  2.1320955655037789e-03  2.0236505257846447e-03  1.2214059439306590e-03  4.8469385250500622e-04  1.1671743325274615e-03  2.7106110552393668e-03  5.2468995413201287e-03  5.3688935825432138e-03  6.8625595882165704e-04  1.7403595513092406e-03  8.7150881121425561e-04  5.9953848062070918e-04  2.1929140479863877e-03  2.4558196162673749e-03  2.8511645497551609e-03  4.9593592253375698e-03  4.6530452555583988e-03  4.4923256930101052e-03  2.1260472725372708e-03  1.9705794480634367e-03  2.1018191728520218e-03  2.1113781877171766e-03  2.0062826876639560e-03  2.0231105253980435e-03  1.9090732259011204e-03  2.4948426088704273e-03  5.1258129764176303e-03  2.3442663424522218e-03  2.5866979245090546e-03  2.0598988822267896e-03  2.0803016290279583e-03  2.5549181408293445e-03  2.3164657333642515e-03  1.9887783225971093e-03  1.9502815696332560e-03  1.7873544222172862e-03  2.2036820915805034e-03  8.8439085388290750e-04  1.9884754080530748e-03  4.0176059154505934e-03  1.8478251812595247e-03  2.9327406166376052e-03  2.7169831416450009e-04  5.2204586010588120e-03  2.8731593112118407e-04  2.9010088894475821e-03  2.5862383400463595e-04  5.3979575621853322e-03  2.4615993088600530e-04  4.2228647244921206e-03  3.7909018082476907e-03  5.4562308156851222e-03  3.8847669515634477e-04  3.2121241512645218e-04  4.5441052727607234e-03  4.9319465866202190e-03  5.6800092218164380e-04  2.6698527132230023e-03  2.4892109939026684e-03  2.2496936019714975e-03  2.1355009763084692e-03  2.3988541484610219e-03  2.1074348161882611e-03  1.9162173931713293e-03  1.9830499256945164e-03  2.1485210800805425e-03  3.0927943248045303e-03  2.3907773333177278e-03  2.1250038845930445e-03  4.3459547331098913e-03  2.1979156257075053e-03  2.1202210754962415e-03  1.9910008162552454e-03  2.0108589115300393e-03  2.0228950130634633e-03  2.1617451579509870e-03  4.5613087819754280e-04  2.0404121180701749e-03  1.9973547619391509e-03  2.1333921632162934e-03  1.9727152933183426e-03  2.1952443797191379e-03  5.1970952995796672e-03  2.2460516548901770e-03  2.2141869318893482e-03  2.1156296862122961e-03  2.2126824478925192e-03  1.9750114521668075e-03  1.9915098439690980e-03  1.8630705632855047e-03  2.1497684263399402e-03  1.6271666377061403e-03  4.4560433625129503e-04  3.9171186639655220e-04  2.2603098877085888e-03  4.6368126981545657e-04  2.1026565339045257e-03  2.1229146047614541e-03  2.4198397085928155e-03  6.3154333939178478e-04  2.3866878815412473e-03  4.1322816079418360e-04  2.0781361072549367e-03  2.0890118947992269e-03  2.1474609093757287e-03  2.5542308242800633e-04  1.9885484322138530e-03  6.4957440666745881e-03  1.4931488440670035e-03  9.3606319158957504e-04  2.2899400544173698e-03  2.0328011843217743e-03  1.9466140454362851e-03  2.7260525038811253e-03  1.9798615181353348e-03  2.0812963996805637e-03  2.1327092216293516e-03  2.1603774926301999e-03  2.0726795929056300e-03  4.5164422258945668e-03  2.9630983124827566e-03  2.2457338185397739e-03  2.6282685488744988e-03  2.2896017926420432e-03  2.2659207882699669e-03  2.2561137844033046e-03  2.9597140296799521e-03  1.9302713024302051e-03  1.0953097796750880e-03  1.9950940343095329e-03  1.2395336575038753e-03  3.6025313567825280e-03  4.9177832747561911e-03  3.7571440822997968e-03  1.9965983942153583e-03  2.3276332427315848e-03  2.2342113054895593e-03  5.4289503584875123e-03  2.3935838115261773e-03  2.9215384769224681e-03  3.9191660259776826e-03  3.4863973151494755e-03  1.9322259552936910e-03  7.2131073810461179e-04  1.9587065613786781e-03  2.0424309286523486e-03  3.0050318350052794e-03  2.2706026521183572e-03  2.1778742819944272e-03  2.3677859738629264e-03  2.0256879277974252e-03  4.9661995529738472e-04  2.1480853108228615e-03  4.2929434171686369e-03  1.9860544056368732e-03  1.9652606531948219e-03  1.9497824879794862e-03  2.1947252992918858e-03  2.3180408895556674e-03  2.1104187472367709e-03  2.0538199917816244e-03  2.1243494995595632e-03  2.2917795589941824e-03  1.9237765395431104e-03  1.1090863270666097e-03  1.1663014541642364e-03  2.2663115344577576e-03  2.1815097733266131e-03  2.1164288636376996e-03  3.6009703846290168e-04  3.6667289135598107e-04  2.0039529438400858e-03  5.4610336083055081e-03  2.7281101166563664e-04  7.3130089859443415e-04  2.1512976632587465e-03  9.0404775185094993e-04  2.0311360788285017e-03  3.2072892351380828e-04  2.4302854155468633e-03  1.9356576857419751e-03  1.5940935812929018e-03  4.3514247980269385e-04  4.8869047558343045e-04  5.3446450720108004e-03  2.1041783019995586e-03  1.0111656134801567e-03  2.1921521790939308e-03  1.9278869230560088e-03  2.2396680804158105e-03  2.0067184447961012e-03  2.0997810154908601e-03  1.9787514340820710e-03  4.5968876917372352e-03  2.5403747314881476e-03  2.2771462290704825e-03  1.9882467291981554e-03  2.0798634179194325e-03  2.5273513531235475e-03  2.0826883667298471e-03  2.8166489153373655e-03  2.0722894367476681e-03  2.5235797305786178e-03  2.8333115547878642e-04  3.2178231438682940e-04  2.0386601760109643e-03  2.5890886952547334e-03  2.3554677981220255e-03  2.2992965050483215e-03  2.1165354067132678e-03  2.2112170371550695e-03  2.3122606643578131e-03  1.9611053661234314e-03  3.7041819438709297e-03  3.0575450625913618e-03  1.9524850949527023e-03  1.0976646304469164e-03  1.6731558382685322e-03  2.2453940899388363e-03  2.2823924320824456e-03  1.1962477764597113e-03  2.4445901480733062e-03  2.1344490988419126e-03  2.7169626176340128e-03  2.3052062716573006e-03  2.2381584402273447e-03  7.1631563649829561e-04  2.1090711236783732e-03  3.2938004330751252e-04  2.0164089633313100e-03  2.0271658371971532e-03  1.6233778352738961e-03  2.0455832192163535e-03  9.5208384615878209e-04  2.2279097337776312e-03  2.0709907535836724e-03  1.8493516108157343e-03  4.1151771454868858e-03  1.9003602623241117e-03  1.9186640858480347e-03  2.5632816870485159e-03  1.5268736249238048e-03  4.9243463892291277e-03  2.3607551198217215e-03  2.0517201221032818e-03  4.9909697400082349e-03  1.4163699008610561e-03  1.8937556583485194e-03  5.0708336738103195e-03  4.4636896693522025e-04  1.9522599157126659e-03  1.9912711151002177e-03  2.0913272166929154e-03  1.9973443508006727e-03  3.4946328211399460e-04  2.0977119971921790e-03  1.9832928409240658e-03  2.6471672682584317e-03  2.3838886220582689e-03  2.2117865121439647e-03  2.2009084957164133e-03  2.2499991791388209e-03  1.5220907418043218e-03  2.1426952463808992e-03  2.2252571804705135e-03  4.9764010374843421e-03  2.3236302614104303e-03  2.0615664095292633e-03  1.9598161727217229e-03  1.7843606239004916e-03  1.6569777005298056e-03  3.2664538643833915e-04  3.9449574063402982e-04  2.4199806367439891e-03  4.1323345222502800e-03  5.8146617465448308e-03  1.8495015112621816e-03  2.5623193947488097e-04  5.4997289939795425e-03  2.3523050288598202e-03  2.6984568532002285e-04  1.2810925958434004e-03  2.1202756437797591e-03  5.4873189341604904e-04  4.5352149374686812e-04  2.0159750249273008e-03  2.0125326531925040e-03  4.4525562012823742e-04  2.1701645447234240e-03  3.1247272315436723e-04  6.3194514756502928e-04  2.8102848349967699e-04  2.9945051629002537e-04  5.9982272880493327e-03  7.2856447027324790e-03  2.1428481463850024e-03  2.1094532399722381e-03  1.5470240180686181e-03  2.1371547495594107e-03  2.0360548574896681e-03  2.0801723287367136e-03  2.1582394872691709e-03  2.3748725993727048e-03  2.1949743744926506e-03  2.2060618583961502e-03  3.7856853351691253e-04  1.9750566415999305e-03  2.1669223763357065e-03  2.1506107237789468e-03  3.1047956438455201e-04  2.7203458809424521e-03  2.0156335961855391e-03  1.2382332589452980e-03  2.2433728422725273e-03  2.0242542442249858e-03  2.1507385745351769e-03  2.8858465567685523e-03  4.8660375811369286e-03  2.1796156338992219e-03  5.4265676104585233e-03  2.0722498503181778e-03  3.9713505022995876e-03  6.0820365081436885e-04  2.1545090254874175e-03  2.272215770677172