<?xml version="1.0"?>
<VTKFile type="UnstructuredGrid"  version="0.1"  >
<UnstructuredGrid>
<Piece  NumberOfPoints="2446" NumberOfCells="4585">
<Points>
<DataArray  type="Float64"  NumberOfComponents="3"  format="ascii">0 0.41 0  0 0 0  2.2 0 0  2.2 0.41 0  0.2404508497187474 0.2293892626146237 0  0.25 0.2 0  0.2404508497187474 0.1706107373853764 0  0.2154508497187474 0.1524471741852423 0  0.1845491502812526 0.1524471741852423 0  0.1595491502812526 0.1706107373853764 0  0.15 0.2 0  0.1595491502812526 0.2293892626146237 0  0.1845491502812527 0.2475528258147577 0  0.2154508497187474 0.2475528258147577 0  1.1 0 0  1.1 0.41 0  0 0.205 0  0.55 0 0  0.55 0.41 0  0.275 0 0  0.275 0.41 0  1.65 0.41 0  1.65 0 0  0.8250000000000001 0.41 0  0.8250000000000001 0 0  1.375 0 0  1.375 0.41 0  1.925 0 0  1.925 0.41 0  1.5125 0.205 0  1.7875 0.205 0  0.6875 0.205 0  0.9625000000000001 0.205 0  1.2375 0.205 0  2.2 0.205 0  0.4687002074688797 0.2068568464730291 0  1.99375 0.2152743902439024 0  2.0625 0 0  2.0625 0.41 0  2.2 0.3075 0  0.4125 0 0  0.4125 0.41 0  1.7875 0.41 0  1.375 0.1486128048780488 0  1.5125 0 0  1.7875 0 0  1.5125 0.41 0  0.8250000000000001 0.2613871951219511 0  0.9625000000000001 0.41 0  0.9625000000000001 0 0  0.6875 0.41 0  0.6875 0 0  0.1375 0 0  0.1375 0.41 0  1.2375 0 0  1.1 0.1486128048780487 0  1.2375 0.41 0  1.65 0.1486128048780487 0  1.126715909090909 0.2793064024390244 0  1.676715909090909 0.2793064024390244 0  0.8517159090909092 0.1306935975609756 0  1.348284090909091 0.2793064024390244 0  0.34375 0.3032389320646208 0  1.894702181800738 0.1282910975492754 0  2.092797818199262 0.1282910975492754 0  1.85625 0.3075 0  0.61875 0.3075 0  0.61875 0.1025 0  0.3648540804333487 0.1240075933101478 0  0 0.3075 0  0 0.1025 0  2.099172119769978 0.25625 0  0.48125 0.09238439620688085 0  0.5781001037344399 0.2059284232365146 0  0.48125 0.3196743479159776 0  0.7265881057911006 0.3055240343720796 0  1.99375 0.08395950269330846 0  1.459960956013612 0.3075 0  1.569025960719943 0.2986889805672169 0  0.75625 0.08213100772579164 0  1.03125 0.3278689922742084 0  0.923871252904788 0.3078247185783941 0  1.959375 0.3126371951219512 0  1.749222215368287 0.1025 0  1.275777784631713 0.1025 0  2.2 0.1025 0  1.225938124459196 0.3075 0  1.550777784631713 0.1025 0  1.000777784631713 0.1025 0  1.44375 0.07430640243902442 0  1.16875 0.07430640243902437 0  1.899250267340833 0.2229966846119207 0  0.1020898364287272 0.3140258291809757 0  1.766482954545455 0.2934032012195123 0  0.3405058858996321 0.2119987970531874 0  0.7710785630958338 0.1710968191298857 0  1.046078563095834 0.2389031808701144 0  0.2 0.3400647632937836 0  1.421109702350723 0.2261157654379721 0  0.2800464974185557 0.08982544815605742 0  0.098916018031319 0.09171660955420841 0  2.13125 0 0  2.118919042110979 0.3422084711244843 0  1.30625 0.41 0  0.89375 0 0  1.597888256393107 0.2173787389261347 0  0.20625 0 0  1.829299675393195 0.07400700849299596 0  1.71875 0.41 0  1.16875 0.41 0  2.038220665644273 0.332420740103091 0  0.34375 0 0  0.417496017710808 0.2696595573092803 0  0.2 0.07687845740457822 0  0.9295982307099278 0.1343158415898188 0  0.07390688010811153 0.1697064032433452 0  0.5238366813727013 0.2578302467013575 0  0.05452951551825875 0.25625 0  0.5229630068078351 0.1548816096928243 0  1.452769549894695 0.1548122580621249 0  1.369219062229598 0.07430640243902442 0  1.30625 0 0  0.8504409521244898 0.3356935975609756 0  0.8821881244591965 0.205 0  1.720943423819132 0.1714577452753128 0  1.157188124459196 0.205 0  1.094219062229598 0.07430640243902437 0  1.03125 0 0  1.304056576180868 0.1714577452753128 0  1.67579304192913 0.07430640243902437 0  0.2751941921308361 0.3346083473122598 0  1.209670467133757 0.1362100266964769 0  1.025335513626278 0.1700681449722324 0  0.7562500000000001 0.41 0  1.58125 0 0  0.7567170593862014 0.2409196493502535 0  0.6926714215682891 0.1272249611432207 0  0.4139715849905988 0.3397932387114203 0  0.9840787304190477 0.2717749043358119 0  0.06875000000000001 0.41 0  0 0.35875 0  0.9281250000000001 0.06276726142697993 0  0.5507396469029935 0.3219409231578227 0  0.5504468037989405 0.09136885600634273 0  1.58125 0.41 0  1.631724228912893 0.3381867502687533 0  1.825608881788174 0.14499488549201 0  1.85625 0 0  1.44375 0 0  1.44375 0.41 0  1.85625 0.41 0  2.13125 0.41 0  0.7562500000000001 0 0  0.89375 0.41 0  0.4812500000000001 0 0  0.34375 0.41 0  0.4812500000000001 0.41 0  0.20625 0.41 0  0.06875000000000001 0 0  1.16875 0 0  0.61875 0 0  0.61875 0.41 0  1.03125 0.41 0  1.71875 0 0  1.99375 0 0  1.99375 0.41 0  1.340625 0.3489494290853124 0  1.134375 0.3489494290853123 0  1.700180620188976 0.3438659752031281 0  2.135782184673599 0.07126652247502523 0  1.668441847249787 0.2129203728327609 0  1.295782514339747 0.2378437748815763 0  0.8233075729931248 0.06842334294821524 0  1.409375 0.3520314716057996 0  0.403505597322782 0.182067236678212 0  0.378125 0.05794951541303489 0  0.3043468223249023 0.1518321115979534 0  2.129248544730567 0.1906135162504124 0  2.060771381434487 0.1989445750470348 0  2.013252586573865 0.1496169464686054 0  1.942766402200229 0.1734448904596831 0  1.895522487186454 0.06076163953489683 0  2.069553871656643 0.06605731020975725 0  1.274680914880868 0.3520219391081363 0  1.614713220494657 0.09473434380863296 0  0.7899021319497519 0.3149123934144827 0  0.69518737419149 0.0634051089053758 0  0.2971740475496061 0.2592172353407536 0  1.72990325744076 0.2380068107952482 0  1.356580098625191 0.2120393231351682 0  2.034370752044885 0.2668681600792073 0  1.51768709249349 0.3426260931494756 0  1.561883724969884 0.1650446847858835 0  1.197344062229598 0.2523725417393646 0  1.804085235518364 0.3468178408964637 0  1.817887819205233 0.2589243285818559 0  1.905897727272727 0.3485060975609756 0  0.6719798073392919 0.2688965171178177 0  0 0.05125 0  0.653125 0.35875 0  0.6396896119294488 0.1627615407790282 0  0.4274150154087412 0.1242548552168279 0  1.192836486056382 0.3562350748565544 0  0.8279124365364005 0.183856489168822 0  1.097485222388854 0.2083571153401724 0  1.28257088594801 0.2944411014911587 0  1.474860187679412 0.2504218616229368 0  1.406767003493824 0.2829282258560709 0  0.446875 0.04619219810344041 0  0.515625 0.04585361801037557 0  0.592043440706648 0.05125 0  1.845656689180403 0.1998310418452388 0  2.144958525570388 0.2909790873294231 0  0.6171090763650112 0.2492366900333857 0  2.2 0.15375 0  0.5145586920831158 0.3648371739579888 0  1.57794966442982 0.3540357145964566 0  0.721875 0.3633107922168974 0  0.0496154796471391 0.333125 0  0.5843750000000001 0.3662560860076676 0  0.5810878747760798 0.1474002776121195 0  1.508991196088596 0.1421783375065625 0  0.8840670607017558 0.2640994375393898 0  0.09776612425612034 0.2204896805326566 0  1.50436820029908 0.06143401634903343 0  1.223857000523521 0.0823554862453532 0  1.153316824384777 0.1289850171317837 0  2.148922302309752 0.1258841779285271 0  0.309375 0.04312325590431198 0  1.621993280276081 0.2841214267927899 0  1.550118654119087 0.2461998729100966 0  1.327182649291491 0.1216967252533594 0  1.051977450479407 0.1221382572915816 0  1.753125 0.04556020050186112 0  1.271875 0.04556020050186116 0  0.9816084133102366 0.05126138213476004 0  1.039051841454368 0.0572224914831029 0  0.9719230514536006 0.3480477870845102 0  1.94956388244759 0.1180512551534177 0  1.949997712993411 0.04965831614304109 0  1.771961817615021 0.1530278789497521 0  1.909246823951428 0.2812757146784527 0  0.2459536687882397 0.04668633953831142 0  1.948575539857022 0.2445328248721197 0  1.697271520964565 0.1233917627620729 0  0.7964897648514618 0.1211426571931604 0  1.065625 0.3689344961371042 0  1.085849084308977 0.3170853572226867 0  0.4702981435440001 0.260434880697798 0  1.577403511714593 0.05463601888079143 0  0.05622663515370135 0.05493816910862376 0  0.3267207591099919 0.3566194660323104 0  0.9003051618565143 0.3564049499960621 0  1.751571320346033 0.3651102912045228 0  0.1583785085108421 0.2994699345738728 0  0.1455283439499995 0.3542795598723423 0  2.2 0.35875 0  0.2347662494194072 0.298325008655211 0  0.1527284455616188 0.1065771775690181 0  0.1382139529076665 0.05427454456341477 0  0.8749341636311069 0.05110114999892954 0  0.643661668713109 0.05693499781019222 0  1.466879772203159 0.3611261772912453 0  1.990280163552011 0.3564754268533217 0  1.17471064520912 0.2990917256188288 0  0.5202693090594349 0.206382495511728 0  0 0.25625 0  2.2 0.25625 0  2.2 0.05125 0  0 0.15375 0  1.853978576207987 0.35875 0  0.9787513713939683 0.1487523696999336 0  0.240625 0.3722153812029779 0  1.515638456102889 0.2882700110184686 0  0.09048297387599738 0.3637717362208066 0  2.150453692751374 0.2387066338105111 0  1.323782677156475 0.04897634338873398 0  0.8074131292871642 0.3624701995505916 0  1.409375 0.03715320121951221 0  1.406484531114799 0.1087852750766809 0  1.134375 0.03715320121951218 0  1.627401732573545 0.04552157221025036 0  0.1170173172005315 0.1427610859166811 0  2.045405893604797 0.1105340662939892 0  1.255408269734577 0.1577307500159216 0  2.028125 0.03707597992059326 0  0.4743610090857199 0.1421513964721819 0  0.9354010469015898 0.250631300585664 0  0.04420832937638274 0.128125 0  0.8922386349349938 0.0992956419364831 0  0.1197849154434487 0.2663398672460083 0  1.248258025468107 0.2565907092181813 0  0.3746885856929528 0.370723531618974 0  1.203125 0.0366132337404304 0  0.5724622277005015 0.2751253816079333 0  0.3365425205162783 0.08395777655057959 0  2.072662025974815 0.2975086504196739 0  0.4581080832182547 0.3648371739579888 0  0.3874522734668214 0.2295447548840689 0  0.7827853612484443 0.04106550386289586 0  1.887722846421017 0.1760882698830035 0  1.472640588990488 0.1118278026240017 0  1.865937103925594 0.2604137786483804 0  1.463913572748262 0.2030442564990043 0  1.376426316059077 0.3186741374914345 0  0.6641993820150034 0.3141688596240831 0  0.2943117490824315 0.2130987422685822 0  0.3478153998082709 0.1666571081082676 0  0.3427990510599805 0.2575950027870776 0  0.7997118993855807 0.2216171933356366 0  
[...]
<PointData  Scalars="f_9-0"> 
<DataArray  type="Float64"  Name="f_9-0"  format="ascii">2.4422614449680597e-05  6.6301074921542365e-04  8.8858170947436103e-06  6.2578593131537136e-06  7.2677258076518625e-04  1.4390146192561491e-03  2.0532384245399195e-03  2.1362455274846230e-03  1.4334249744083821e-03  6.2715344426849014e-04  2.7473636907543437e-04  1.8534955142928205e-04  1.5079871554919073e-04  2.2336354256739511e-04  2.5947097733827456e-03  4.3821829897851402e-04  1.5730185283959521e-04  4.4184031286538953e-03  7.0019768741350140e-05  5.0208203306900991e-03  3.4306445460927063e-05  3.0471700744924991e-04  6.2748763157740206e-04  2.5477082338194864e-04  3.5842943801160858e-03  1.5557930221226114e-03  4.8575244666188575e-04  1.0590300431815173e-04  6.3339198213036843e-05  1.5229433978527431e-03  8.8782712846013944e-04  1.2305103301169125e-03  1.9735795826594745e-03  1.8466299154849726e-03  5.9291280251917293e-05  2.3435968913217212e-03  2.8693082079119377e-04  3.1308183042072207e-05  1.9931344667217455e-05  3.1225225356956959e-05  4.7999944375091003e-03  4.3130504586362326e-05  1.5859149353142975e-04  2.3469969715113185e-03  1.0634936368383659e-03  2.8710760801550924e-04  4.3384907769637569e-04  2.7422696090826626e-03  2.9556186122048735e-04  3.0296362479090596e-03  2.0781829788332960e-04  4.1507298993924977e-03  3.4622151621762783e-03  2.7126812489672561e-05  2.1240583362771319e-03  1.5283226386554243e-03  4.9432665669230330e-04  1.3010116293502426e-03  7.9799390127533885e-04  8.2147239698379269e-04  3.6022206445057575e-03  1.5385439924034204e-03  1.7537083458738948e-04  4.9297526320085899e-04  1.2149737062372232e-04  3.6939499800092040e-04  1.4856662874239890e-04  2.7914896318904773e-03  3.3505481621579187e-03  5.2281574797428895e-05  3.5625146761972352e-04  1.1131677845066050e-04  4.2745110140487942e-03  6.6868733461734962e-04  2.0299583584679890e-04  9.6028900429660758e-04  1.8118519268975594e-04  9.0926276681509415e-04  8.4116921758017123e-04  3.9540696946765352e-03  4.0921297181690613e-04  8.9215929158563520e-04  1.9175357383859697e-04  8.8465160720282206e-04  2.5420099160461543e-03  4.0488666361699356e-05  9.7467906542901843e-04  1.4623389398122522e-03  2.2914938825272175e-03  1.7089876959496193e-03  2.5923954154365935e-03  5.0179631122980906e-04  5.4045408440774442e-05  6.1139186092365547e-04  1.6591774548273949e-03  3.1186847790971696e-03  7.7112573277112731e-04  5.2347585282542245e-05  1.8604428102292510e-03  4.1926271355767642e-03  4.9081089693074663e-03  1.5050980869809391e-05  3.6432962557936046e-05  4.9573140942196585e-04  3.2898910564249061e-03  1.2107548849856601e-03  4.7268187008016318e-03  4.7929350521005380e-04  2.3106856538064209e-04  4.7556871947167267e-04  8.3595803564306839e-05  4.9727988654880324e-03  8.6076676370119680e-04  5.5240718204666566e-03  2.6209089996203560e-03  2.4544199492555660e-04  7.4003410929076056e-04  9.3735753414040705e-05  2.5970921005482629e-03  1.9363343747177610e-03  2.0598185257075766e-03  1.8335489290003449e-03  8.1349089354623705e-04  3.0838468354133413e-03  1.1350297826454286e-03  1.3231477834905910e-03  2.5877597680789093e-03  2.8076954770873178e-03  2.4517222199324242e-03  9.5355966624771919e-04  6.6828240507790432e-05  2.3751715740345240e-03  1.3011433146557548e-03  2.5741800701458063e-04  8.4405736786236768e-04  2.4057266468361948e-03  2.5545183549266501e-03  1.0286177655971000e-04  9.2630658752250006e-04  2.4905191885247820e-05  3.1063639167606182e-05  3.1216403417649217e-03  1.3340309850765872e-04  3.6813447003254864e-03  3.7575728873706057e-04  5.6110659861728282e-04  7.5354115938404485e-04  1.7773976966497309e-04  1.2864237101814485e-03  4.6993191220121071e-04  1.0604463703623331e-04  1.0281170884201646e-05  3.8885622219898461e-03  2.4081501810853829e-04  4.5961893408013477e-03  3.8211267767946925e-05  5.0141646784569370e-05  3.0132293405039836e-05  1.3525775972549445e-03  2.3765025415520892e-03  4.2948228910385886e-03  1.2392889127367326e-04  3.7679412617137045e-04  4.3784157341221133e-04  5.6986306353268586e-05  3.7470435072588557e-05  7.0828625713728176e-04  5.6820551483722831e-04  4.4939457074207501e-04  4.5605874185017216e-05  1.1302803238886312e-03  1.9891291917045889e-03  3.7621698005573154e-03  6.4280394200941617e-04  2.8150340523190832e-03  4.7502373232424233e-03  2.3787592505884773e-03  1.0509025535114066e-04  1.8217216010096152e-04  2.4737674161368832e-04  4.1351451953123739e-04  2.7157250310196388e-04  7.6586423022160637e-05  6.9306496502681688e-04  1.2603478626319639e-03  1.3273484877374922e-03  3.9735802290537933e-03  5.1899576655807197e-04  9.4276139615804850e-04  2.2351129181458151e-03  1.7195996365093659e-04  6.2875811478434651e-04  1.4529460988483823e-03  1.2741389075668487e-03  2.9585255571647998e-04  6.4176386567804861e-04  1.6528226991096271e-04  5.2827748511409458e-04  5.1912404793135456e-04  1.7674929034665058e-04  1.1237518505709937e-03  3.8411067654811563e-03  6.0471348570122153e-04  3.5063280494672584e-03  9.1961643378948551e-04  1.2882902273288158e-03  1.4029433287719515e-03  1.3124303831980855e-03  4.6836296571151174e-03  4.4351117252625890e-03  4.0934148903332941e-03  6.9564433373606942e-04  5.8015505583985125e-05  2.9387757482700799e-04  5.6523260078116664e-05  6.7930706281668982e-05  5.3526482051751703e-04  3.6778491637790933e-04  4.0589135823582647e-05  8.5720551802172314e-05  1.6010574833418706e-03  1.6556291271958309e-03  2.2880268741320427e-03  1.4147269801500454e-04  1.3911356209360803e-03  2.5525542666023624e-03  2.1838226481757966e-03  7.3578521153555673e-05  4.9960754277652009e-03  8.6837862290599583e-04  1.1579790038436020e-03  2.4881653608924098e-03  1.8021115443889310e-03  5.2382264719010680e-04  2.2095390018524712e-03  2.9245149271373929e-03  2.7313979728002067e-03  3.3736412671107435e-04  3.3265018915717130e-04  1.5525379500634577e-04  9.6410358322034301e-04  3.5150663217001156e-04  5.1863326187783923e-03  3.4703867505984416e-04  1.1426137472189250e-03  3.8046955895304109e-03  4.2893959351955494e-04  5.4686927707923863e-04  1.0821491676631079e-03  1.1175154118125328e-03  1.1411784227154484e-03  5.4090717962390141e-05  3.8355108795064269e-04  2.8984089110118869e-04  7.9281137874479630e-05  3.8179934528136742e-05  1.3368419063543112e-05  1.0375667425249879e-04  5.4518134223326123e-03  5.5161752253335703e-03  3.4387307114439763e-03  3.9660974106492863e-03  5.6597876744673222e-04  8.0665422760134206e-05  8.8808026844538872e-04  1.4464103724343056e-03  9.1825173860952269e-05  4.9272103450239571e-05  1.8797761413085207e-05  2.5666432833583447e-04  1.9273117169047097e-04  1.8718435844578599e-03  3.8772507179288815e-05  9.5738715484907364e-04  3.1588806191433208e-05  7.8632540913880624e-05  2.0405814666863403e-03  4.9263249161029155e-04  1.5786355882257931e-03  2.0910032377431786e-03  2.5684456899979762e-03  8.9803316832635081e-04  2.6294447999007714e-03  1.5813970798858503e-04  2.3790116714869063e-03  6.6434853640807043e-05  3.6763091871742717e-03  1.9294438152645758e-03  4.8105156774156391e-04  3.2451349394849705e-03  9.6936905520104695e-05  1.5390063216749240e-03  5.0045153455863765e-05  2.3733046997570150e-03  2.9833479183596288e-04  4.3167236488365060e-03  9.9588258927418524e-05  6.6459817064874277e-05  1.7321314388774711e-03  3.8609727084346285e-03  5.7088148827491353e-04  1.7625896217121637e-03  5.0895964571658742e-04  1.7943601689580080e-03  9.5668535481709029e-04  2.8352396045155009e-04  1.3267738027013653e-03  2.4074720947298203e-03  6.9646240664159313e-04  3.1316791696646240e-03  7.4301559116471795e-04  8.0203622071946029e-04  3.2821435176803870e-05  2.2622417578764386e-03  3.3205138555580838e-03  1.2589134709045833e-03  5.5277389570065113e-04  7.0544051414837513e-04  2.1938405992497287e-03  2.7075539424379785e-03  2.7640658015152338e-05  1.3927131763070602e-03  5.6201286353670294e-04  1.3986150875476453e-03  4.7486493762648717e-04  1.5028756890818196e-04  2.4453645791737476e-04  2.9092194572403550e-05  1.4410202551393524e-05  3.5476399311223874e-05  2.7331928441738525e-03  4.0343054101560378e-03  3.4070387362034288e-04  7.7713339604608563e-04  1.5716682342563262e-04  4.2642547715494913e-03  1.8391386914512267e-03  1.8212914146630349e-03  1.1734622823459889e-03  1.2617929410908600e-03  4.0828959750792540e-04  2.3696866524226421e-04  5.2736440194056872e-04  6.3989059149318012e-04  3.3687785039169214e-04  3.5281628760994041e-04  1.8020785318575513e-05  1.2612299332640005e-05  2.4423616595486437e-05  3.2056136157024482e-03  4.2581268105747313e-04  2.6063527137792195e-03  3.2099419613709529e-03  1.0586301059622267e-03  3.9871529942261263e-04  4.6486667384717508e-04  9.5151479700555182e-04  8.8138781239978297e-05  2.2939103724418804e-03  3.3538624700813731e-03  1.2889479751339091e-04  2.7040511394139785e-03  5.1100152574678950e-04  3.8248238383842428e-04  2.7383839293510354e-03  4.4878460655494272e-03  2.8633361463538441e-05  1.8087179630889893e-04  2.6137584150917690e-04  1.3500877117890314e-03  5.8736540159424371e-04  1.3905948117483592e-04  1.3746329929518479e-03  5.0495575521916089e-03  1.0796465237263245e-03  3.2393540599917488e-03  1.0389937170029455e-03  2.3088513671995240e-03  2.4986873653266254e-04  3.0778429762005622e-04  2.4378833711547819e-03  2.5004071557259734e-03  3.0458900865462314e-03  9.5149694711853293e-04  1.5341799630302917e-03  3.1619154551022733e-04  7.7904744483374002e-05  1.1088692451353328e-03  1.0506017139742926e-04  1.8379278045187900e-03  8.2491483624229971e-05  2.6978932933238741e-04  1.3880632666629978e-04  2.8736297873324938e-04  1.5800697079723473e-03  9.2058959346257257e-04  7.1926285999392224e-04  1.2117029625600038e-03  7.9669268326891713e-04  9.4143774381007348e-04  1.3736799536627270e-04  2.8454866137405713e-05  4.1992118054384723e-05  2.1463109044445694e-03  1.5704632341721880e-03  4.5892276963274979e-04  6.2024542223114066e-05  4.3208025939881463e-03  8.9711932806429927e-05  6.4605831288227253e-04  3.6080648262328003e-03  2.9159455010031339e-04  3.2816798135927144e-04  1.7292573137934054e-03  2.2006289741856761e-04  1.0289879222967952e-03  3.5970449119576134e-03  1.1891039658491390e-04  1.2986924887582276e-03  4.1559105768516476e-05  3.4425680105791024e-05  1.2444327335118779e-03  3.6193347720425686e-05  7.7753802158732268e-04  2.6307041188272039e-03  3.6983911769859841e-03  1.3327572978099373e-03  3.2042492321365103e-03  5.0888784515079112e-04  7.7802313661776785e-04  3.4641742138111881e-04  6.9519143251611416e-05  1.1249277056488188e-03  1.0195447499201909e-03  2.1518909493175482e-03  1.0688593122382107e-03  2.5587558163144885e-03  2.2902506365363785e-03  1.7801920180661489e-03  2.0995464256832064e-03  1.2249557425078640e-03  2.4739861901839550e-03  3.2595067573698100e-04  2.0840517910797746e-03  8.4153092872513559e-05  2.5469386535772638e-03  2.5525543193515407e-03  2.0223039964014614e-03  6.1500528959246498e-05  7.1739693991671664e-04  6.1918863477313576e-04  7.3503019994382995e-04  3.4351238149946985e-03  3.0938168089873671e-04  4.5839656601394754e-04  1.4107819831086622e-03  3.9936818156464227e-04  1.3420188940911769e-03  4.7777198755826492e-04  2.0376380615482023e-03  2.2694100571046425e-04  7.1386585906843872e-04  1.6144610493352567e-04  2.1716932119158740e-04  2.3796280861048155e-03  1.8718592939099615e-03  7.8937474119327450e-05  1.0989440894800953e-04  7.7064945650209918e-05  4.2105409304341349e-04  1.3056988282973431e-03  1.1028388068602582e-03  1.6759638409254516e-03  1.6078323469463894e-03  4.1551293428055761e-03  1.8631098357824037e-03  5.0212136850419256e-04  3.0813806507487343e-03  3.2642648518110373e-03  3.4341927288770802e-03  3.5765937166932433e-03  4.7122933814251064e-05  7.9900098882673335e-05  2.8684954917720766e-03  3.6998520234371625e-04  2.0520334349408904e-05  1.7461430805981969e-03  1.5376159364589002e-03  2.4209767410477276e-03  6.0720993869644191e-04  8.6443591224709729e-04  4.4551560580027470e-04  4.8803398253189157e-03  5.2927034197153867e-05  2.9065620916670473e-03  1.9042967225800800e-03  7.5719769025692836e-04  3.6027776549193103e-03  5.1925308658596009e-04  4.5942101348869741e-04  5.8208266591622780e-04  4.8664027477751405e-04  5.7026094319663902e-04  7.2118335366887719e-04  2.0219482915582792e-03  1.0441725524947015e-04  4.8465538677282515e-04  2.6286464599683656e-04  7.5955352018146390e-05  2.2471241470271124e-03  3.2242944856089250e-03  4.8001492766294321e-03  4.8957634486118612e-03  1.3545640637477714e-04  3.2941001246479789e-04  1.0400804185654049e-04  1.2025815382739032e-04  6.7603037428395549e-04  2.2531734620899364e-03  1.6442448069520106e-03  4.1594226667808166e-03  2.7385942663494668e-03  2.7708897601650666e-03  9.0771185876427460e-04  2.6383608390833052e-04  2.9906116670863880e-04  2.3247583427065348e-04  2.6446990463777428e-04  4.9398063022209270e-04  4.7380751795603925e-04  2.4645120669619762e-03  4.5928585136376905e-03  1.6981353395833553e-03  2.7029179069785717e-03  1.0618870579784004e-05  2.1226905558482024e-05  2.4871265732388874e-03  1.4227008754797894e-03  4.5513576816277738e-04  1.9481170410798175e-04  4.1094717831463112e-04  3.6505646903390644e-04  2.4402835568510380e-04  4.7687027492992567e-04  4.0347467314062095e-03  7.5674484762904432e-06  3.1551074364305851e-03  4.0409879630077808e-05  4.6971988340754724e-03  4.5813969482932170e-05  2.3713765921498753e-03  3.2204796548427754e-05  4.9347137541246788e-03  2.5769373230342333e-05  4.2374990267561403e-03  3.7353217691899476e-03  5.0235551660445226e-03  9.2110991196518293e-05  5.7062928223229050e-05  4.3556945944698260e-03  4.5020038374133497e-03  1.6345130314906594e-04  2.9142682828741419e-03  2.2470022834242720e-03  7.3100781696982598e-04  7.7603910845005833e-05  1.9821584789651132e-03  4.2182467255403996e-05  4.7960665736620679e-05  2.9690459473845652e-04  2.1239639771074257e-04  3.9168806924251799e-03  1.9618620576772414e-03  1.9016783142996913e-03  4.1946177768543078e-03  2.0143439778182982e-03  1.6445167341134568e-03  6.8773794413885087e-04  7.7074522450246521e-04  7.9464073577087922e-04  1.5683611405705784e-04  1.2565835283064370e-04  7.0672567887294783e-04  5.1339745967800732e-04  9.0608114212360898e-04  2.8400502737766604e-04  1.0971224295691661e-03  4.6852116840370630e-03  6.6515255744518129e-04  6.4186178868674869e-04  9.9204686200940386e-04  2.2888259235514302e-03  2.4339458735938140e-04  4.8691573003350401e-04  1.4130650488850388e-03  5.5922127967264327e-04  3.1487336440465979e-04  1.2114299195043084e-04  1.1477235399627681e-04  8.8062111402153814e-04  1.2607601853025952e-04  4.6225226831546295e-05  9.6838690186334147e-05  2.3614996189925243e-03  2.2577023578318405e-04  2.3543823479967711e-03  1.0076060039172804e-04  7.8787314506304493e-04  4.5617326663715234e-04  4.8010047498878584e-04  2.9316290095074680e-05  5.9370043860527266e-05  5.9942895134334371e-03  2.5145191759803610e-04  9.5105970210003163e-04  2.5061977314187172e-03  1.2586352149175794e-04  1.8424196206345210e-04  8.9064961340109606e-04  3.1205168849335498e-04  6.5862960914400714e-04  6.4379178414502550e-04  2.2045664695748878e-04  5.7622272773316113e-05  4.3023037419050725e-03  2.1169705534867314e-03  1.4667825515068929e-03  3.7822965701751038e-03  4.3472091180876866e-04  1.3202195720970124e-03  1.0714919377669094e-03  2.3309544496128835e-03  9.4759556239407852e-05  1.0241071114312490e-03  4.3569837192677544e-04  8.3162065285698195e-04  3.0968361890886141e-03  4.4021088261643870e-03  1.6385644989342699e-03  4.1340300352226843e-04  2.0641472964975931e-03  1.5105570031725697e-03  5.0128973772980727e-03  2.3072287629660399e-03  2.3565734042280567e-03  4.1078345632777043e-03  4.5207219699001634e-04  1.1675110816158599e-04  5.6140999629380442e-04  1.5398489518195433e-04  2.0761966893109154e-03  3.0785417250458022e-03  9.7306625606206790e-04  7.6119056056554886e-04  2.5440632908055967e-03  8.0899820076261000e-04  1.4710273757565716e-04  7.9381681416121200e-04  4.2029941584602569e-03  1.8425020740125413e-03  1.2311741527416577e-03  1.2388278123740000e-03  1.2325213407097105e-03  1.5576626457442482e-03  6.2666601896696223e-04  5.0231737774761103e-04  1.4031487491596398e-04  1.1981769232774391e-03  5.5862623246190660e-05  6.1712899312510959e-04  6.7449688350260301e-04  1.5424726202380138e-03  3.7720800547871495e-04  9.3777964775114669e-04  7.4111066081407432e-05  1.3271439860202175e-04  6.0711710830700010e-04  4.9887652698471429e-03  3.7746119612171432e-05  5.0136750236930410e-04  2.7220429203198866e-04  1.5173941561123707e-03  5.3961595909117618e-04  7.4523981296703364e-05  2.4632740833267774e-03  1.3978350824949199e-04  2.6223581367592160e-04  1.1488043220292861e-04  2.9812645248743658e-04  4.9206406244371413e-03  5.9701743436066123e-05  1.2992867449728837e-03  3.3548776366863927e-04  1.5169469648765254e-03  1.3269306771466348e-03  3.9552484234550538e-04  5.5493491236879549e-05  6.5842740291980457e-04  3.6783406448649193e-03  1.1405780425471513e-03  1.1602089986598129e-03  3.5278157132480129e-03  9.0965353912708549e-04  9.8384885711416182e-04  3.0245079658618175e-05  8.0928543276403790e-04  1.3556697168086139e-04  2.7005268613247910e-03  4.0245064661789668e-05  5.6447889913678132e-05  4.5140063526969413e-04  1.4957364465334052e-03  2.0489786412568531e-03  1.6818488076694236e-03  1.1229277433479150e-03  1.4934914330503183e-03  1.4121064325785882e-03  2.5232203176175428e-04  3.6932665114926830e-03  3.9993403552039865e-03  3.5699393409640814e-04  2.9515607504411461e-03  3.3467282662193237e-03  1.4970730689618909e-03  1.5847560257201943e-03  7.6876290391322995e-04  2.6498495358906783e-03  5.9530769910136100e-04  1.3347345597371006e-03  3.6094561627289588e-04  2.1091836246308509e-04  5.4881133317823561e-04  4.9683376276995028e-05  6.1046416598221955e-05  1.2477356024230993e-03  1.6517115634708335e-03  4.6384113054241113e-04  5.4220896010859524e-04  2.9407019749375660e-04  7.0916763195806132e-04  2.5744624106491419e-03  6.0020988967732637e-04  3.6954886416314761e-03  2.6887523307940974e-03  4.3515879761238285e-05  2.7856426604703946e-03  3.1641125105176648e-03  4.2094759084656524e-03  1.7849896767555291e-03  7.1096188754664466e-04  4.5222549190857267e-03  3.4678642180650172e-03  3.7827046178930761e-03  4.4555725717104564e-03  1.2689664836963667e-04  2.0167641530356798e-04  4.5020889328593189e-05  8.2544253328920667e-05  3.9518492093134392e-05  6.2290674819903179e-05  5.6179440245188292e-04  1.3414529148247448e-04  1.3209982186784927e-03  1.9911021480417917e-03  4.5073579081208011e-04  3.6977262429200149e-04  1.3914063694503603e-03  1.8704685807873433e-03  2.2904789207889376e-03  2.5036189912660224e-03  4.5832970456142486e-03  2.3872529543781328e-03  7.0924538448678752e-04  4.7858306864393123e-04  4.6213788024616252e-04  2.1321760182709142e-03  5.8016199612047603e-05  9.1391358868250552e-05  2.3613229998437958e-03  3.6377109691300624e-03  5.3486825112331465e-03  1.3451388604552304e-03  2.9871264895087377e-05  5.0647404876549935e-03  2.6280494575978038e-03  4.0103813958128660e-05  2.8985357898844467e-03  5.9172818354586443e-05  1.7999130698941591e-04  1.2351509542255759e-04  6.8279244901406464e-04  5.1000333675900824e-04  1.2110760443430929e-04  3.8849496362613567e-04  5.3116833270107297e-05  1.5840727892066726e-03  3.9743633854373518e-05  4.7118565314839718e-05  5.3890263063521952e-03  6.7323531916841919e-03  3.9821389536154577e-04  1.3560287331730410e-04  1.6920041905452022e-04  1.3291672818414029e-03  9.9967134664459860e-04  1.1724611487763370e-03  9.6629958166777970e-04  2.5693470063649368e-03  1.3397994967957690e-03  7.9971716698740852e-04  7.4000868484828537e-05  2.7542787628953271e-04  2.1126572083636478e-04  1.1985388316086164e-04  1.0776239838575046e-04  3.3895354100802015e-03  3.9071672874928525e-04  3.3380552540599011e-03  9.5749794097051578e-04  5.1041032035353481e-04  1.0658937262745354e-03  2.8078971641917836e-03  4.4426061078022870e-03  5.8482944123565926e-04  5.0069304636011459e-03  1.0130630549272130e-03  1.0488283843148732e-03  7.3891862227269407e-04  1.0377240217491720e-03  2.562012823554790