<?xml version="1.0"?>
<VTKFile type="UnstructuredGrid"  version="0.1"  >
<UnstructuredGrid>
<Piece  NumberOfPoints="2446" NumberOfCells="4585">
<Points>
<DataArray  type="Float64"  NumberOfComponents="3"  format="ascii">0 0.41 0  0 0 0  2.2 0 0  2.2 0.41 0  0.2404508497187474 0.2293892626146237 0  0.25 0.2 0  0.2404508497187474 0.1706107373853764 0  0.2154508497187474 0.1524471741852423 0  0.1845491502812526 0.1524471741852423 0  0.1595491502812526 0.1706107373853764 0  0.15 0.2 0  0.1595491502812526 0.2293892626146237 0  0.1845491502812527 0.2475528258147577 0  0.2154508497187474 0.2475528258147577 0  1.1 0 0  1.1 0.41 0  0 0.205 0  0.55 0 0  0.55 0.41 0  0.275 0 0  0.275 0.41 0  1.65 0.41 0  1.65 0 0  0.8250000000000001 0.41 0  0.8250000000000001 0 0  1.375 0 0  1.375 0.41 0  1.925 0 0  1.925 0.41 0  1.5125 0.205 0  1.7875 0.205 0  0.6875 0.205 0  0.9625000000000001 0.205 0  1.2375 0.205 0  2.2 0.205 0  0.4687002074688797 0.2068568464730291 0  1.99375 0.2152743902439024 0  2.0625 0 0  2.0625 0.41 0  2.2 0.3075 0  0.4125 0 0  0.4125 0.41 0  1.7875 0.41 0  1.375 0.1486128048780488 0  1.5125 0 0  1.7875 0 0  1.5125 0.41 0  0.8250000000000001 0.2613871951219511 0  0.9625000000000001 0.41 0  0.9625000000000001 0 0  0.6875 0.41 0  0.6875 0 0  0.1375 0 0  0.1375 0.41 0  1.2375 0 0  1.1 0.1486128048780487 0  1.2375 0.41 0  1.65 0.1486128048780487 0  1.126715909090909 0.2793064024390244 0  1.676715909090909 0.2793064024390244 0  0.8517159090909092 0.1306935975609756 0  1.348284090909091 0.2793064024390244 0  0.34375 0.3032389320646208 0  1.894702181800738 0.1282910975492754 0  2.092797818199262 0.1282910975492754 0  1.85625 0.3075 0  0.61875 0.3075 0  0.61875 0.1025 0  0.3648540804333487 0.1240075933101478 0  0 0.3075 0  0 0.1025 0  2.099172119769978 0.25625 0  0.48125 0.09238439620688085 0  0.5781001037344399 0.2059284232365146 0  0.48125 0.3196743479159776 0  0.7265881057911006 0.3055240343720796 0  1.99375 0.08395950269330846 0  1.459960956013612 0.3075 0  1.569025960719943 0.2986889805672169 0  0.75625 0.08213100772579164 0  1.03125 0.3278689922742084 0  0.923871252904788 0.3078247185783941 0  1.959375 0.3126371951219512 0  1.749222215368287 0.1025 0  1.275777784631713 0.1025 0  2.2 0.1025 0  1.225938124459196 0.3075 0  1.550777784631713 0.1025 0  1.000777784631713 0.1025 0  1.44375 0.07430640243902442 0  1.16875 0.07430640243902437 0  1.899250267340833 0.2229966846119207 0  0.1020898364287272 0.3140258291809757 0  1.766482954545455 0.2934032012195123 0  0.3405058858996321 0.2119987970531874 0  0.7710785630958338 0.1710968191298857 0  1.046078563095834 0.2389031808701144 0  0.2 0.3400647632937836 0  1.421109702350723 0.2261157654379721 0  0.2800464974185557 0.08982544815605742 0  0.098916018031319 0.09171660955420841 0  2.13125 0 0  2.118919042110979 0.3422084711244843 0  1.30625 0.41 0  0.89375 0 0  1.597888256393107 0.2173787389261347 0  0.20625 0 0  1.829299675393195 0.07400700849299596 0  1.71875 0.41 0  1.16875 0.41 0  2.038220665644273 0.332420740103091 0  0.34375 0 0  0.417496017710808 0.2696595573092803 0  0.2 0.07687845740457822 0  0.9295982307099278 0.1343158415898188 0  0.07390688010811153 0.1697064032433452 0  0.5238366813727013 0.2578302467013575 0  0.05452951551825875 0.25625 0  0.5229630068078351 0.1548816096928243 0  1.452769549894695 0.1548122580621249 0  1.369219062229598 0.07430640243902442 0  1.30625 0 0  0.8504409521244898 0.3356935975609756 0  0.8821881244591965 0.205 0  1.720943423819132 0.1714577452753128 0  1.157188124459196 0.205 0  1.094219062229598 0.07430640243902437 0  1.03125 0 0  1.304056576180868 0.1714577452753128 0  1.67579304192913 0.07430640243902437 0  0.2751941921308361 0.3346083473122598 0  1.209670467133757 0.1362100266964769 0  1.025335513626278 0.1700681449722324 0  0.7562500000000001 0.41 0  1.58125 0 0  0.7567170593862014 0.2409196493502535 0  0.6926714215682891 0.1272249611432207 0  0.4139715849905988 0.3397932387114203 0  0.9840787304190477 0.2717749043358119 0  0.06875000000000001 0.41 0  0 0.35875 0  0.9281250000000001 0.06276726142697993 0  0.5507396469029935 0.3219409231578227 0  0.5504468037989405 0.09136885600634273 0  1.58125 0.41 0  1.631724228912893 0.3381867502687533 0  1.825608881788174 0.14499488549201 0  1.85625 0 0  1.44375 0 0  1.44375 0.41 0  1.85625 0.41 0  2.13125 0.41 0  0.7562500000000001 0 0  0.89375 0.41 0  0.4812500000000001 0 0  0.34375 0.41 0  0.4812500000000001 0.41 0  0.20625 0.41 0  0.06875000000000001 0 0  1.16875 0 0  0.61875 0 0  0.61875 0.41 0  1.03125 0.41 0  1.71875 0 0  1.99375 0 0  1.99375 0.41 0  1.340625 0.3489494290853124 0  1.134375 0.3489494290853123 0  1.700180620188976 0.3438659752031281 0  2.135782184673599 0.07126652247502523 0  1.668441847249787 0.2129203728327609 0  1.295782514339747 0.2378437748815763 0  0.8233075729931248 0.06842334294821524 0  1.409375 0.3520314716057996 0  0.403505597322782 0.182067236678212 0  0.378125 0.05794951541303489 0  0.3043468223249023 0.1518321115979534 0  2.129248544730567 0.1906135162504124 0  2.060771381434487 0.1989445750470348 0  2.013252586573865 0.1496169464686054 0  1.942766402200229 0.1734448904596831 0  1.895522487186454 0.06076163953489683 0  2.069553871656643 0.06605731020975725 0  1.274680914880868 0.3520219391081363 0  1.614713220494657 0.09473434380863296 0  0.7899021319497519 0.3149123934144827 0  0.69518737419149 0.0634051089053758 0  0.2971740475496061 0.2592172353407536 0  1.72990325744076 0.2380068107952482 0  1.356580098625191 0.2120393231351682 0  2.034370752044885 0.2668681600792073 0  1.51768709249349 0.3426260931494756 0  1.561883724969884 0.1650446847858835 0  1.197344062229598 0.2523725417393646 0  1.804085235518364 0.3468178408964637 0  1.817887819205233 0.2589243285818559 0  1.905897727272727 0.3485060975609756 0  0.6719798073392919 0.2688965171178177 0  0 0.05125 0  0.653125 0.35875 0  0.6396896119294488 0.1627615407790282 0  0.4274150154087412 0.1242548552168279 0  1.192836486056382 0.3562350748565544 0  0.8279124365364005 0.183856489168822 0  1.097485222388854 0.2083571153401724 0  1.28257088594801 0.2944411014911587 0  1.474860187679412 0.2504218616229368 0  1.406767003493824 0.2829282258560709 0  0.446875 0.04619219810344041 0  0.515625 0.04585361801037557 0  0.592043440706648 0.05125 0  1.845656689180403 0.1998310418452388 0  2.144958525570388 0.2909790873294231 0  0.6171090763650112 0.2492366900333857 0  2.2 0.15375 0  0.5145586920831158 0.3648371739579888 0  1.57794966442982 0.3540357145964566 0  0.721875 0.3633107922168974 0  0.0496154796471391 0.333125 0  0.5843750000000001 0.3662560860076676 0  0.5810878747760798 0.1474002776121195 0  1.508991196088596 0.1421783375065625 0  0.8840670607017558 0.2640994375393898 0  0.09776612425612034 0.2204896805326566 0  1.50436820029908 0.06143401634903343 0  1.223857000523521 0.0823554862453532 0  1.153316824384777 0.1289850171317837 0  2.148922302309752 0.1258841779285271 0  0.309375 0.04312325590431198 0  1.621993280276081 0.2841214267927899 0  1.550118654119087 0.2461998729100966 0  1.327182649291491 0.1216967252533594 0  1.051977450479407 0.1221382572915816 0  1.753125 0.04556020050186112 0  1.271875 0.04556020050186116 0  0.9816084133102366 0.05126138213476004 0  1.039051841454368 0.0572224914831029 0  0.9719230514536006 0.3480477870845102 0  1.94956388244759 0.1180512551534177 0  1.949997712993411 0.04965831614304109 0  1.771961817615021 0.1530278789497521 0  1.909246823951428 0.2812757146784527 0  0.2459536687882397 0.04668633953831142 0  1.948575539857022 0.2445328248721197 0  1.697271520964565 0.1233917627620729 0  0.7964897648514618 0.1211426571931604 0  1.065625 0.3689344961371042 0  1.085849084308977 0.3170853572226867 0  0.4702981435440001 0.260434880697798 0  1.577403511714593 0.05463601888079143 0  0.05622663515370135 0.05493816910862376 0  0.3267207591099919 0.3566194660323104 0  0.9003051618565143 0.3564049499960621 0  1.751571320346033 0.3651102912045228 0  0.1583785085108421 0.2994699345738728 0  0.1455283439499995 0.3542795598723423 0  2.2 0.35875 0  0.2347662494194072 0.298325008655211 0  0.1527284455616188 0.1065771775690181 0  0.1382139529076665 0.05427454456341477 0  0.8749341636311069 0.05110114999892954 0  0.643661668713109 0.05693499781019222 0  1.466879772203159 0.3611261772912453 0  1.990280163552011 0.3564754268533217 0  1.17471064520912 0.2990917256188288 0  0.5202693090594349 0.206382495511728 0  0 0.25625 0  2.2 0.25625 0  2.2 0.05125 0  0 0.15375 0  1.853978576207987 0.35875 0  0.9787513713939683 0.1487523696999336 0  0.240625 0.3722153812029779 0  1.515638456102889 0.2882700110184686 0  0.09048297387599738 0.3637717362208066 0  2.150453692751374 0.2387066338105111 0  1.323782677156475 0.04897634338873398 0  0.8074131292871642 0.3624701995505916 0  1.409375 0.03715320121951221 0  1.406484531114799 0.1087852750766809 0  1.134375 0.03715320121951218 0  1.627401732573545 0.04552157221025036 0  0.1170173172005315 0.1427610859166811 0  2.045405893604797 0.1105340662939892 0  1.255408269734577 0.1577307500159216 0  2.028125 0.03707597992059326 0  0.4743610090857199 0.1421513964721819 0  0.9354010469015898 0.250631300585664 0  0.04420832937638274 0.128125 0  0.8922386349349938 0.0992956419364831 0  0.1197849154434487 0.2663398672460083 0  1.248258025468107 0.2565907092181813 0  0.3746885856929528 0.370723531618974 0  1.203125 0.0366132337404304 0  0.5724622277005015 0.2751253816079333 0  0.3365425205162783 0.08395777655057959 0  2.072662025974815 0.2975086504196739 0  0.4581080832182547 0.3648371739579888 0  0.3874522734668214 0.2295447548840689 0  0.7827853612484443 0.04106550386289586 0  1.887722846421017 0.1760882698830035 0  1.472640588990488 0.1118278026240017 0  1.865937103925594 0.2604137786483804 0  1.463913572748262 0.2030442564990043 0  1.376426316059077 0.3186741374914345 0  0.6641993820150034 0.3141688596240831 0  0.2943117490824315 0.2130987422685822 0  0.3478153998082709 0.1666571081082676 0  0.3427990510599805 0.2575950027870776 0  0.7997118993855807 0.2216171933356366 0  
[...]
<PointData  Scalars="f_9-0"> 
<DataArray  type="Float64"  Name="f_9-0"  format="ascii">1.6176428638194694e-04  1.0325149437677436e-03  1.8461832975325443e-03  1.5063788639108852e-03  1.0626463963776215e-03  1.9382519615789081e-03  2.4801677979659448e-03  2.5792102283376467e-03  1.8941100638521383e-03  1.0076941926842288e-03  5.8253563963742724e-04  4.5455271739079450e-04  4.0075747885744221e-04  4.5632844474442622e-04  2.4662429386088087e-03  1.6717852038282460e-03  4.0380282244655003e-04  4.6831533446667004e-03  2.8205414302412651e-04  5.3456278989194340e-03  1.7908519782564733e-04  1.8056660337286241e-03  2.1615471611637288e-03  1.2008435877089928e-03  3.5534968791171347e-03  2.2569264639104030e-03  1.8677129302309013e-03  2.0194728412585255e-03  1.6660398251040114e-03  2.2016234682246858e-03  2.1129413302080815e-03  2.9443026678849229e-03  2.3178118608286483e-03  1.8892184112773492e-03  1.9857844641099926e-03  1.1921915223110527e-03  1.9011772363210578e-03  1.9193773324227392e-03  1.5954725011459944e-03  1.7847950827522305e-03  5.1573884240209526e-03  1.9237222957697322e-04  1.7301581337482038e-03  2.2835238736297571e-03  2.2084919571800942e-03  2.0923291206569792e-03  1.8284154335464586e-03  1.1663353958046923e-03  1.4728058932769132e-03  2.7970383261547030e-03  5.3969633080079159e-04  3.9256974407767325e-03  3.8725120895943986e-03  1.6789872022782059e-04  2.3905835375413885e-03  2.5046942493147737e-03  1.8940867056670705e-03  2.1021330676804224e-03  1.9967763386725033e-03  1.9409397863226006e-03  1.7573160665673648e-03  1.9981764718599729e-03  3.0470327786563862e-04  2.0880096630322368e-03  1.9946275110470512e-03  1.8643663782737842e-03  1.6129716696996997e-03  4.2922802787842308e-03  3.5190328476330602e-03  2.2204130279423833e-04  6.8474066986050255e-04  1.9172765779542195e-03  4.3772967776616149e-03  3.6999212514334141e-03  3.3980691225771978e-04  8.6112080857983779e-04  2.0268979345677640e-03  2.0165473535041318e-03  1.8837010795363194e-03  2.3875728954159880e-03  2.1372412096294581e-03  2.3057019455688809e-03  1.7591514498788566e-03  2.1480280176425243e-03  2.2286862173742285e-03  1.9324733489148919e-03  1.8719453784843256e-03  2.1983846688572047e-03  2.7414106356559408e-03  2.2515163042524061e-03  2.2279694614185412e-03  2.0040963869389938e-03  2.2724570421697173e-04  1.9773075575574622e-03  1.3968500988552949e-03  1.4526971444291385e-03  2.7235107834213523e-03  2.2156903879142349e-04  2.2099409031865616e-03  4.6997195248860840e-03  5.2894344416421777e-03  1.8697870457654627e-03  1.7114797030481628e-03  1.8929933238528045e-03  3.2091740224964075e-03  2.0019725802641959e-03  5.1085239545669223e-03  2.1029138423542303e-03  1.7745320668061059e-03  1.8319476910823862e-03  1.7513161251024932e-03  5.2758987739088192e-03  3.5459073845398796e-04  5.9913916298671155e-03  2.6661213691044901e-03  5.2662948511903861e-04  1.7953411825527231e-03  3.0069637252394017e-04  3.3966990577975389e-03  2.3048554072347348e-03  2.2908091002818189e-03  2.3119581603131254e-03  1.5318765269583751e-03  1.4559709855160928e-03  2.1111779580889382e-03  2.2460897844890949e-03  2.3031523302784228e-03  2.5467924844034917e-03  2.0487673828198335e-03  2.1644397493326339e-03  2.3744646651337154e-04  2.0934340460929016e-03  2.7460988557398572e-03  8.6152305150150629e-04  2.1882601438167372e-03  1.3931227758864659e-03  2.6520420755034423e-03  2.1402983242151409e-04  2.4862863488003852e-03  1.6297829155443596e-04  1.7694003256959703e-04  3.1383159908447414e-03  8.8448574462198046e-04  4.6935523650941217e-03  1.8215159190822824e-03  1.8677284234347826e-03  2.1347727896618624e-03  2.0580295300947414e-03  2.2285447508033577e-03  1.8419083851452134e-03  1.6941946657360847e-03  1.5414252946712450e-03  3.7364279203443099e-03  1.4096978228398621e-03  4.9993498277719024e-03  1.8320266207165814e-04  2.2370254040180422e-04  1.7322750003937208e-04  1.7351873120574309e-03  2.4356749753536512e-03  4.2681719513470847e-03  3.6164986909450678e-04  1.5159189032904333e-03  2.1270825577968228e-03  1.9708763996750985e-03  1.6389564634193975e-03  1.9737986216728084e-03  1.7169409597514943e-03  1.8750465947806065e-03  1.9221190463500396e-03  2.0047514284098939e-03  1.8736637414278252e-03  2.9131493486026501e-03  1.9452898854886932e-03  1.1916548699839760e-03  4.9524699833756658e-03  2.9380793472506862e-03  1.9843827877815473e-03  1.9420543097127484e-03  1.9953086154754773e-03  2.0134240414564947e-03  2.0662370097215077e-03  1.9649163773974455e-03  1.9429073801483280e-03  2.1625068139287354e-03  9.2295922758513606e-04  3.3687865376582061e-03  7.8372139768484320e-04  2.0295545984016857e-03  2.0922866683226542e-03  1.8511307770521757e-03  1.8623230012432858e-03  2.1615665211347345e-03  1.8573250040050295e-03  1.8177468344147631e-03  2.0395331537727233e-03  1.7235225933210595e-03  2.3202224150330299e-03  8.7665203267569744e-04  5.1273682491687544e-04  3.8567868957426255e-03  3.1491193084814948e-03  1.8505753724552705e-03  1.1573011540883574e-03  2.6343191334825904e-03  1.9084062666572313e-03  2.1596555124995371e-03  2.1010790401361137e-03  4.9828906755886400e-03  4.8945459925290964e-03  4.5303982433287423e-03  2.1073844233405830e-03  1.8744935224306346e-03  3.3299016029716497e-03  1.9749626603264873e-03  3.0126053595197472e-04  1.8432174447149635e-03  6.0586454923039729e-04  1.9799324349356682e-04  4.3836556670574821e-04  4.2902634889849982e-03  2.2607077251559945e-03  1.8137753124351941e-03  3.8398521028752165e-04  2.2180213761895584e-03  2.2196677069365725e-03  2.2937011267740877e-03  1.9688180932013262e-03  5.2985765302499830e-03  1.8996911106562270e-03  2.0082355448428450e-03  2.2703913234158979e-03  2.4735425594821069e-03  2.1234457837964603e-03  2.3542423104752517e-03  2.7911117757541638e-03  2.4788596744918182e-03  2.0483518229707800e-03  2.0490958838752576e-03  2.0312675283188203e-03  2.1460160282442400e-03  1.8505455526744519e-03  5.5417311723421061e-03  1.8784690178176974e-03  2.1463673784637475e-03  1.5242969800703635e-03  1.6288397003841304e-03  1.9255400523670821e-03  5.8731703250145331e-04  2.1891043127388694e-03  1.5006384352221113e-03  2.0452922312372336e-04  1.7661460168920398e-03  1.8120302828362814e-03  2.7714050707667508e-04  1.9347263484065602e-04  1.5877440208283348e-03  3.1114392122896524e-04  5.9781778119716552e-03  5.8928984326504646e-03  3.3045275746708034e-03  4.0315006049005189e-03  1.8736548899548960e-03  1.6960105337442625e-03  1.7945129386198813e-03  2.5644914972256867e-03  2.9635911009937021e-04  1.9381497677271363e-03  1.8768796029701683e-03  5.4627636706863422e-04  1.7441991080387137e-03  2.8133203302116412e-03  1.9014070766576967e-04  1.9666863077018397e-03  1.7855505043369642e-04  1.9618996068380382e-03  2.3161161110056240e-03  1.0986248986308705e-03  2.2483401622853121e-03  2.2919102698678896e-03  2.3733834873673329e-03  2.1769792786148841e-03  3.0420806209184017e-03  2.0093514563947540e-03  1.9917451807958991e-03  1.9676057147851064e-03  2.8420001341825586e-03  2.0641882829447954e-03  7.9207407687302870e-04  2.8273764386130317e-03  3.1025506543765389e-04  1.8355252623458336e-03  1.9298115670149236e-04  2.3740647292401825e-03  2.4423296444573373e-03  4.6439364117101265e-03  1.8426692243105956e-03  2.1960106350395303e-04  7.0927773445280176e-04  3.3723857979925192e-03  2.0827218378066253e-03  2.2704208958900548e-03  1.9793901611691034e-03  2.2668167017513307e-03  2.0328792609674230e-03  1.1651311838750875e-03  1.7700009373966350e-03  2.3138549192108474e-03  7.2531233201245245e-04  1.0928236140638628e-03  1.9733299905965564e-03  2.0520629153286995e-03  1.9077535495438534e-03  2.1375032843947155e-03  1.7839862898201123e-03  2.5774789234850001e-03  2.5988322010456716e-03  2.4905188383800955e-03  2.2441302844793927e-03  3.2135298053136909e-03  1.6192179272015825e-03  2.1290005971624274e-03  3.6542471985548681e-03  2.2017063993079455e-03  1.9364155894025764e-03  3.9395091935239375e-04  1.8333102099794413e-03  1.7154761636504201e-03  1.5691428079528794e-03  1.6625108092881041e-03  3.1132223421702640e-03  3.4607128999787932e-03  1.8152077870630565e-03  2.1366135443490458e-03  1.7903837493202122e-03  4.6667110048891035e-03  2.1011614800379636e-03  2.0771120726409830e-03  2.2182301612903052e-03  2.0368903022856678e-03  1.8254319993173524e-03  1.3301650155283027e-03  2.1447387596003316e-03  2.1450529181470798e-03  1.4878631559517581e-03  1.6904871711398788e-03  1.8712962373331251e-03  1.5663763736272714e-03  1.6179616693251904e-04  3.4781429447644139e-03  8.2677446548293601e-04  2.0218468687674537e-03  1.7110669371423845e-03  1.9455951500395882e-03  2.1008148728253683e-03  2.0961090909208699e-03  2.1987823867375455e-03  1.6848305675439962e-03  6.3205540252745881e-04  3.9602763946334435e-03  1.7099137982833339e-03  2.4294215491971523e-03  1.9177836466337964e-03  1.8352843005389201e-03  2.9820075255639548e-03  4.4958189875977921e-03  1.7080377439565358e-04  1.9913485391595668e-03  1.4655663683789026e-03  2.1076282112622844e-03  1.9088774588478963e-03  1.9851503836887932e-03  2.2264887032980678e-03  5.4247272277743123e-03  2.6794932471736655e-03  1.5614312980420026e-03  1.9286237405209236e-03  9.3217598860530183e-04  2.7482480371383725e-04  2.5980290244139738e-04  1.8673046538934350e-03  2.2534677920279010e-03  1.3488478598386159e-03  2.2909621140201537e-03  2.4408121369860463e-03  6.1538403100283785e-04  1.9869288766678826e-03  1.9770905340346749e-03  2.0028250214686825e-03  1.6155391147269309e-03  1.6790557727219813e-03  2.0731784470166522e-03  2.0400099031571534e-03  2.0605583915242419e-03  2.2336781915077292e-03  2.1561505312245864e-03  2.1621136938859719e-03  2.1495660183810739e-03  1.1688760500497353e-03  1.9882799325042313e-03  3.1579209757455864e-04  1.7111740607173788e-04  1.6585916932575437e-03  2.3040177932235977e-03  2.9792171921997606e-03  2.4738095909813303e-03  2.4216818284761445e-04  4.7378254687312649e-03  2.9400071470550885e-04  2.1264072261211473e-03  2.5016735039164800e-03  1.7126422045018787e-03  5.9880247426662050e-04  2.2780921312254617e-03  4.9965381565411692e-04  1.9195343842972924e-03  2.6131085264021283e-03  1.9994601877801588e-03  2.1316303928298496e-03  1.9223569613530093e-04  1.8408408925289367e-04  2.0838701211671534e-03  1.8101698186092811e-04  4.0969377603390983e-03  2.3121059565248533e-03  3.9120922922703215e-03  3.6707539181521039e-03  3.7248457676672744e-03  7.2943549677871946e-04  2.9799542122870581e-03  1.4562126376017992e-03  2.5596406884373314e-04  2.2051381128457719e-03  2.0938751446175664e-03  1.8943291998505679e-03  2.1474582927150120e-03  2.1474658524175370e-03  2.3031258291763414e-03  2.2767019576537479e-03  2.3581308345773083e-03  2.1029195956921731e-03  2.2025115444333282e-03  2.0131669321336990e-03  2.4201903703107456e-03  2.2205273298073821e-04  2.1590986969773724e-03  2.0944075601383974e-03  2.3628292749008511e-03  2.3546807054737560e-04  1.8726025736141526e-03  1.9033388333242077e-03  4.6987880403703179e-04  4.0276091715958137e-03  5.4654344853122467e-04  8.0334922700919732e-04  1.4077404742446427e-03  1.8308962862355785e-03  2.0814430079791578e-03  1.8339838372384018e-03  3.5515650106810906e-03  2.0752393396240676e-03  6.8019879455825005e-04  1.9016729381618669e-03  1.8835577415603180e-03  2.3143498968607175e-03  2.4082316376360948e-03  1.8711670066399587e-03  1.9570689814261914e-03  1.9860582432654952e-03  1.8910342598783953e-03  2.2003455692572978e-03  2.7483008087592154e-03  2.7314947798082541e-03  2.6930345293257633e-03  3.8852702453520626e-03  2.2666366515458366e-03  1.6830828953003272e-03  2.9446537686057270e-03  3.2061481931841772e-03  3.4007350652811869e-03  3.4264489974616254e-03  1.9308884281932907e-03  1.9660553403365194e-03  2.6001770686643940e-03  1.9414000346977467e-03  1.6079534222185842e-03  1.0559470233002036e-03  1.9449477571984466e-03  1.8967622848304483e-03  2.1145299670610831e-03  2.1389593337400249e-03  3.3678640428790852e-03  5.1417831678100302e-03  1.9811283824740242e-04  3.0212164702884837e-03  2.1497987252440415e-03  2.4656615096160296e-03  1.2406996773691018e-03  1.7956250229001873e-03  1.7609188510710290e-03  1.9319276389479076e-03  1.8792897904756107e-03  1.9209075310413907e-03  1.7758872878564612e-03  2.2868658570146202e-03  1.9901095002924220e-03  1.8753156907760267e-03  1.0364265337062650e-03  4.2792209468722872e-04  1.1700173036057213e-03  2.4678189575079229e-03  5.0782069261341512e-03  5.2200062602978416e-03  4.8773297095332978e-04  1.2557926641988506e-03  9.7474997211110127e-04  7.2132527542045368e-04  2.1194112169299634e-03  2.3769228238551257e-03  2.2749685591701521e-03  4.7030662649838626e-03  4.2779694162050986e-03  4.5770516584838919e-03  2.0383512017446460e-03  1.7903681139476554e-03  1.9615013954573930e-03  1.9522503549686571e-03  1.8093778763908352e-03  1.8971847305587219e-03  1.6945455468907770e-03  2.3790828834377494e-03  4.9896657850780485e-03  2.2797622139678940e-03  2.4907092975889429e-03  1.8524602362962553e-03  1.8921376302334094e-03  2.4497089375353958e-03  2.2412039786030348e-03  1.8332342906521681e-03  1.7537925897858320e-03  1.5836136136487464e-03  2.1101220345823720e-03  6.8497815890135728e-04  1.8519449598981353e-03  3.8105122447135938e-03  1.5187402164600894e-03  2.9976309491324183e-03  1.8648580407646856e-04  5.0937976168444477e-03  2.0376009528759643e-04  2.7710010130398526e-03  1.7639844241002097e-04  5.2882061247041716e-03  1.6497719286680907e-04  4.0799033662951836e-03  3.6550262116522387e-03  5.3294314068143001e-03  3.1431347032014626e-04  2.4882593036222421e-04  4.4744124427327182e-03  4.8632766022197113e-03  4.2878291657036290e-04  2.6464506055592571e-03  2.4209339179187316e-03  2.1759151475933126e-03  1.9961481946121013e-03  2.3523122100278441e-03  1.9450264729495821e-03  1.6525508663880462e-03  1.8101528831277343e-03  2.0210238174108420e-03  2.5815750049582795e-03  2.2918003155946308e-03  2.2531219033628267e-03  4.2704752463893899e-03  1.9634200901900642e-03  1.9161374332207525e-03  1.7813744642583777e-03  1.8826627334364958e-03  1.9339109675306303e-03  2.0405977886540153e-03  3.5927491552522733e-04  1.9550541573977219e-03  1.8696508701390394e-03  1.9812199959083391e-03  1.7969780225089230e-03  2.0470276819499981e-03  5.1830552593376466e-03  3.0723846238637064e-03  2.1211475236978293e-03  1.9596229002407988e-03  1.9668094778296560e-03  1.7728302714679629e-03  1.8389145711592478e-03  1.2731951109878027e-03  2.3985992313438971e-03  1.6100795383717698e-03  3.4625731343219555e-04  3.1001943823330926e-04  2.1847660417058184e-03  4.1631301711467233e-04  1.9379913070043252e-03  1.9791837104402698e-03  2.4938898191578340e-03  4.9560655256728847e-04  2.2014604531963946e-03  3.1512755108370016e-04  1.9224536180766794e-03  2.0000951277648099e-03  2.0629787126858015e-03  1.7330184914031083e-04  1.7641406789990917e-03  6.3897548892312564e-03  2.1100997524605989e-03  1.5877266118568588e-03  1.7667744014831668e-03  1.8165405783480257e-03  1.7456993852360721e-03  2.7438731555233836e-03  1.8259195076052708e-03  1.9347176677086105e-03  2.0650331466042166e-03  2.0424842843707962e-03  1.9255293898213185e-03  4.1201126894065436e-03  2.4937576923577563e-03  2.1735655529305392e-03  1.9100712888388219e-03  2.1695644217591165e-03  2.1784740470055376e-03  2.1690445796876939e-03  2.8186862016918411e-03  1.6850345458727190e-03  1.2229993816533608e-03  1.8292808613161193e-03  1.2477597578031206e-03  3.6641511894478563e-03  4.7948283644441165e-03  4.2763016442220383e-03  1.8286690679197694e-03  2.3655298955476017e-03  2.2009416654304201e-03  5.3652993268055588e-03  2.3098847868185377e-03  2.9173596396726742e-03  3.7470495652835853e-03  3.7691828719944105e-03  1.6987448461765516e-03  1.0409219067551076e-03  1.7249368337002768e-03  1.9799502191610715e-03  2.3307961902808766e-03  2.1947435071534979e-03  2.0905434671108724e-03  2.3676399225248364e-03  1.8349885275933669e-03  3.9491960253629574e-04  2.0132779825065075e-03  4.2759757895795445e-03  1.8426729990629646e-03  1.8319120206452715e-03  2.0200515016867574e-03  2.0536136605867031e-03  2.2360885091388615e-03  2.0085421159187255e-03  1.9628853748361666e-03  1.9594523583829843e-03  2.2144735917692115e-03  1.6619374581101302e-03  9.8331533923631852e-04  1.0402876923936127e-03  2.2141746037880453e-03  2.0790913810037281e-03  1.9576474966808816e-03  2.6671324494186683e-04  2.3864887371244213e-04  1.8501312884964800e-03  5.3532076413031707e-03  1.9002010256022266e-04  3.6508335770845486e-04  2.0317576271493758e-03  4.5288600041748750e-04  1.9119771799634431e-03  2.3884068338281600e-04  2.2917908372904936e-03  1.7149874889210665e-03  1.5319859652833806e-03  3.3619377310391692e-04  4.5530520377943075e-04  5.2016007955715060e-03  1.9429387024302177e-03  7.8143516861888353e-04  2.0876020579437280e-03  1.8466195852944102e-03  2.1307644919406170e-03  1.8847344824486493e-03  1.9724260786447771e-03  2.1823158594809302e-03  4.6647105870341347e-03  2.6200567016669966e-03  2.4842186888086567e-03  1.3734085879395846e-03  1.9251332749344397e-03  3.4094886907404258e-03  1.8981578346724840e-03  2.6603475201357799e-03  1.8764388080867275e-03  2.6389923132733705e-03  1.9809452244593992e-04  2.3281982764717768e-04  1.9418399187085954e-03  2.1164031855704698e-03  2.1762487094709251e-03  2.2203248878409415e-03  2.0785614107827221e-03  2.1866129847147781e-03  2.2342003040775505e-03  1.7779806250577854e-03  3.5253180815746710e-03  2.9780488122868945e-03  2.0924526463286402e-03  1.3827204826343830e-03  1.2284532539971072e-03  2.0671301822733196e-03  2.1577792271725293e-03  8.4001282206049390e-04  2.3617946805507225e-03  2.0714733258360499e-03  2.2889690968393079e-03  3.0015422647528163e-03  2.5794975051061956e-03  6.4230543156321683e-04  1.9563169438487505e-03  2.4133467780336211e-04  1.8736554343959252e-03  1.8596966463994759e-03  1.3222002138182998e-03  1.9150873751436147e-03  7.3506265395231220e-04  2.1429236620507516e-03  1.4916943624400441e-03  1.7584488228988727e-03  4.3370972992738599e-03  1.7979465353448608e-03  1.6508764941833062e-03  2.5094403106806417e-03  1.1261858170231248e-03  4.8286507287167166e-03  2.2899717501930262e-03  1.8950032550978401e-03  4.7003023744238088e-03  1.4519472293024122e-03  1.7097507215080516e-03  4.8503765429465610e-03  3.5479891246965596e-04  1.7582237200908118e-03  1.7882610058481668e-03  1.9275310122143325e-03  1.8157828758327984e-03  2.8136204112660311e-04  2.0314907351979940e-03  1.7454989962271904e-03  2.6152158501789834e-03  2.3324040052859923e-03  2.1229724560460836e-03  2.1042811007930392e-03  2.1584926729150177e-03  2.4074848673197777e-03  2.1878155131308829e-03  2.2071686643834166e-03  4.9613657271695647e-03  2.0921927342473332e-03  1.8898539997270584e-03  2.1700193825217951e-03  1.8141742177331830e-03  1.0794246009169829e-03  2.3833877590099961e-04  2.6893440738581667e-04  2.3243819205039122e-03  4.0014742209174871e-03  5.7276499165629623e-03  1.7203530688263918e-03  1.7424459570482655e-04  5.3965780034511473e-03  2.2773022007226656e-03  1.8593743825975973e-04  1.6891114389331072e-03  1.9856552556426614e-03  4.4022717796026844e-04  3.5238850804709384e-04  1.8600335041706727e-03  1.8476994542142816e-03  3.5095336787882732e-04  2.0696408693737980e-03  2.2407398051446292e-04  4.8308678400649512e-04  1.9596184081508390e-04  2.1222967152676950e-04  5.8418947015481254e-03  7.1497100122673027e-03  2.0425758424773119e-03  1.9330038515175899e-03  1.5484575783984321e-03  2.1094054760942157e-03  1.9276437494751193e-03  1.9920233955829036e-03  2.0107591728241859e-03  2.2259205408428897e-03  2.0852830945680260e-03  2.1219729033346616e-03  3.2263848164304027e-04  1.8047825126624854e-03  2.0504866176573335e-03  2.0222855859757826e-03  2.2229967798481561e-04  2.0538828421306134e-03  1.8612582073185169e-03  1.2108605719366270e-03  2.1496506215116593e-03  1.8552448730373217e-03  2.0798141991596225e-03  2.1700230080231348e-03  4.8063660155956544e-03  2.1026185424959805e-03  5.3005476032120975e-03  1.9206890558764588e-03  3.2423366161280398e-03  3.3539149982097946e-04  1.9993952733349655e-03  2.122132740276930