<?xml version="1.0"?>
<VTKFile type="UnstructuredGrid"  version="0.1"  >
<UnstructuredGrid>
<Piece  NumberOfPoints="2446" NumberOfCells="4585">
<Points>
<DataArray  type="Float64"  NumberOfComponents="3"  format="ascii">0 0.41 0  0 0 0  2.2 0 0  2.2 0.41 0  0.2404508497187474 0.2293892626146237 0  0.25 0.2 0  0.2404508497187474 0.1706107373853764 0  0.2154508497187474 0.1524471741852423 0  0.1845491502812526 0.1524471741852423 0  0.1595491502812526 0.1706107373853764 0  0.15 0.2 0  0.1595491502812526 0.2293892626146237 0  0.1845491502812527 0.2475528258147577 0  0.2154508497187474 0.2475528258147577 0  1.1 0 0  1.1 0.41 0  0 0.205 0  0.55 0 0  0.55 0.41 0  0.275 0 0  0.275 0.41 0  1.65 0.41 0  1.65 0 0  0.8250000000000001 0.41 0  0.8250000000000001 0 0  1.375 0 0  1.375 0.41 0  1.925 0 0  1.925 0.41 0  1.5125 0.205 0  1.7875 0.205 0  0.6875 0.205 0  0.9625000000000001 0.205 0  1.2375 0.205 0  2.2 0.205 0  0.4687002074688797 0.2068568464730291 0  1.99375 0.2152743902439024 0  2.0625 0 0  2.0625 0.41 0  2.2 0.3075 0  0.4125 0 0  0.4125 0.41 0  1.7875 0.41 0  1.375 0.1486128048780488 0  1.5125 0 0  1.7875 0 0  1.5125 0.41 0  0.8250000000000001 0.2613871951219511 0  0.9625000000000001 0.41 0  0.9625000000000001 0 0  0.6875 0.41 0  0.6875 0 0  0.1375 0 0  0.1375 0.41 0  1.2375 0 0  1.1 0.1486128048780487 0  1.2375 0.41 0  1.65 0.1486128048780487 0  1.126715909090909 0.2793064024390244 0  1.676715909090909 0.2793064024390244 0  0.8517159090909092 0.1306935975609756 0  1.348284090909091 0.2793064024390244 0  0.34375 0.3032389320646208 0  1.894702181800738 0.1282910975492754 0  2.092797818199262 0.1282910975492754 0  1.85625 0.3075 0  0.61875 0.3075 0  0.61875 0.1025 0  0.3648540804333487 0.1240075933101478 0  0 0.3075 0  0 0.1025 0  2.099172119769978 0.25625 0  0.48125 0.09238439620688085 0  0.5781001037344399 0.2059284232365146 0  0.48125 0.3196743479159776 0  0.7265881057911006 0.3055240343720796 0  1.99375 0.08395950269330846 0  1.459960956013612 0.3075 0  1.569025960719943 0.2986889805672169 0  0.75625 0.08213100772579164 0  1.03125 0.3278689922742084 0  0.923871252904788 0.3078247185783941 0  1.959375 0.3126371951219512 0  1.749222215368287 0.1025 0  1.275777784631713 0.1025 0  2.2 0.1025 0  1.225938124459196 0.3075 0  1.550777784631713 0.1025 0  1.000777784631713 0.1025 0  1.44375 0.07430640243902442 0  1.16875 0.07430640243902437 0  1.899250267340833 0.2229966846119207 0  0.1020898364287272 0.3140258291809757 0  1.766482954545455 0.2934032012195123 0  0.3405058858996321 0.2119987970531874 0  0.7710785630958338 0.1710968191298857 0  1.046078563095834 0.2389031808701144 0  0.2 0.3400647632937836 0  1.421109702350723 0.2261157654379721 0  0.2800464974185557 0.08982544815605742 0  0.098916018031319 0.09171660955420841 0  2.13125 0 0  2.118919042110979 0.3422084711244843 0  1.30625 0.41 0  0.89375 0 0  1.597888256393107 0.2173787389261347 0  0.20625 0 0  1.829299675393195 0.07400700849299596 0  1.71875 0.41 0  1.16875 0.41 0  2.038220665644273 0.332420740103091 0  0.34375 0 0  0.417496017710808 0.2696595573092803 0  0.2 0.07687845740457822 0  0.9295982307099278 0.1343158415898188 0  0.07390688010811153 0.1697064032433452 0  0.5238366813727013 0.2578302467013575 0  0.05452951551825875 0.25625 0  0.5229630068078351 0.1548816096928243 0  1.452769549894695 0.1548122580621249 0  1.369219062229598 0.07430640243902442 0  1.30625 0 0  0.8504409521244898 0.3356935975609756 0  0.8821881244591965 0.205 0  1.720943423819132 0.1714577452753128 0  1.157188124459196 0.205 0  1.094219062229598 0.07430640243902437 0  1.03125 0 0  1.304056576180868 0.1714577452753128 0  1.67579304192913 0.07430640243902437 0  0.2751941921308361 0.3346083473122598 0  1.209670467133757 0.1362100266964769 0  1.025335513626278 0.1700681449722324 0  0.7562500000000001 0.41 0  1.58125 0 0  0.7567170593862014 0.2409196493502535 0  0.6926714215682891 0.1272249611432207 0  0.4139715849905988 0.3397932387114203 0  0.9840787304190477 0.2717749043358119 0  0.06875000000000001 0.41 0  0 0.35875 0  0.9281250000000001 0.06276726142697993 0  0.5507396469029935 0.3219409231578227 0  0.5504468037989405 0.09136885600634273 0  1.58125 0.41 0  1.631724228912893 0.3381867502687533 0  1.825608881788174 0.14499488549201 0  1.85625 0 0  1.44375 0 0  1.44375 0.41 0  1.85625 0.41 0  2.13125 0.41 0  0.7562500000000001 0 0  0.89375 0.41 0  0.4812500000000001 0 0  0.34375 0.41 0  0.4812500000000001 0.41 0  0.20625 0.41 0  0.06875000000000001 0 0  1.16875 0 0  0.61875 0 0  0.61875 0.41 0  1.03125 0.41 0  1.71875 0 0  1.99375 0 0  1.99375 0.41 0  1.340625 0.3489494290853124 0  1.134375 0.3489494290853123 0  1.700180620188976 0.3438659752031281 0  2.135782184673599 0.07126652247502523 0  1.668441847249787 0.2129203728327609 0  1.295782514339747 0.2378437748815763 0  0.8233075729931248 0.06842334294821524 0  1.409375 0.3520314716057996 0  0.403505597322782 0.182067236678212 0  0.378125 0.05794951541303489 0  0.3043468223249023 0.1518321115979534 0  2.129248544730567 0.1906135162504124 0  2.060771381434487 0.1989445750470348 0  2.013252586573865 0.1496169464686054 0  1.942766402200229 0.1734448904596831 0  1.895522487186454 0.06076163953489683 0  2.069553871656643 0.06605731020975725 0  1.274680914880868 0.3520219391081363 0  1.614713220494657 0.09473434380863296 0  0.7899021319497519 0.3149123934144827 0  0.69518737419149 0.0634051089053758 0  0.2971740475496061 0.2592172353407536 0  1.72990325744076 0.2380068107952482 0  1.356580098625191 0.2120393231351682 0  2.034370752044885 0.2668681600792073 0  1.51768709249349 0.3426260931494756 0  1.561883724969884 0.1650446847858835 0  1.197344062229598 0.2523725417393646 0  1.804085235518364 0.3468178408964637 0  1.817887819205233 0.2589243285818559 0  1.905897727272727 0.3485060975609756 0  0.6719798073392919 0.2688965171178177 0  0 0.05125 0  0.653125 0.35875 0  0.6396896119294488 0.1627615407790282 0  0.4274150154087412 0.1242548552168279 0  1.192836486056382 0.3562350748565544 0  0.8279124365364005 0.183856489168822 0  1.097485222388854 0.2083571153401724 0  1.28257088594801 0.2944411014911587 0  1.474860187679412 0.2504218616229368 0  1.406767003493824 0.2829282258560709 0  0.446875 0.04619219810344041 0  0.515625 0.04585361801037557 0  0.592043440706648 0.05125 0  1.845656689180403 0.1998310418452388 0  2.144958525570388 0.2909790873294231 0  0.6171090763650112 0.2492366900333857 0  2.2 0.15375 0  0.5145586920831158 0.3648371739579888 0  1.57794966442982 0.3540357145964566 0  0.721875 0.3633107922168974 0  0.0496154796471391 0.333125 0  0.5843750000000001 0.3662560860076676 0  0.5810878747760798 0.1474002776121195 0  1.508991196088596 0.1421783375065625 0  0.8840670607017558 0.2640994375393898 0  0.09776612425612034 0.2204896805326566 0  1.50436820029908 0.06143401634903343 0  1.223857000523521 0.0823554862453532 0  1.153316824384777 0.1289850171317837 0  2.148922302309752 0.1258841779285271 0  0.309375 0.04312325590431198 0  1.621993280276081 0.2841214267927899 0  1.550118654119087 0.2461998729100966 0  1.327182649291491 0.1216967252533594 0  1.051977450479407 0.1221382572915816 0  1.753125 0.04556020050186112 0  1.271875 0.04556020050186116 0  0.9816084133102366 0.05126138213476004 0  1.039051841454368 0.0572224914831029 0  0.9719230514536006 0.3480477870845102 0  1.94956388244759 0.1180512551534177 0  1.949997712993411 0.04965831614304109 0  1.771961817615021 0.1530278789497521 0  1.909246823951428 0.2812757146784527 0  0.2459536687882397 0.04668633953831142 0  1.948575539857022 0.2445328248721197 0  1.697271520964565 0.1233917627620729 0  0.7964897648514618 0.1211426571931604 0  1.065625 0.3689344961371042 0  1.085849084308977 0.3170853572226867 0  0.4702981435440001 0.260434880697798 0  1.577403511714593 0.05463601888079143 0  0.05622663515370135 0.05493816910862376 0  0.3267207591099919 0.3566194660323104 0  0.9003051618565143 0.3564049499960621 0  1.751571320346033 0.3651102912045228 0  0.1583785085108421 0.2994699345738728 0  0.1455283439499995 0.3542795598723423 0  2.2 0.35875 0  0.2347662494194072 0.298325008655211 0  0.1527284455616188 0.1065771775690181 0  0.1382139529076665 0.05427454456341477 0  0.8749341636311069 0.05110114999892954 0  0.643661668713109 0.05693499781019222 0  1.466879772203159 0.3611261772912453 0  1.990280163552011 0.3564754268533217 0  1.17471064520912 0.2990917256188288 0  0.5202693090594349 0.206382495511728 0  0 0.25625 0  2.2 0.25625 0  2.2 0.05125 0  0 0.15375 0  1.853978576207987 0.35875 0  0.9787513713939683 0.1487523696999336 0  0.240625 0.3722153812029779 0  1.515638456102889 0.2882700110184686 0  0.09048297387599738 0.3637717362208066 0  2.150453692751374 0.2387066338105111 0  1.323782677156475 0.04897634338873398 0  0.8074131292871642 0.3624701995505916 0  1.409375 0.03715320121951221 0  1.406484531114799 0.1087852750766809 0  1.134375 0.03715320121951218 0  1.627401732573545 0.04552157221025036 0  0.1170173172005315 0.1427610859166811 0  2.045405893604797 0.1105340662939892 0  1.255408269734577 0.1577307500159216 0  2.028125 0.03707597992059326 0  0.4743610090857199 0.1421513964721819 0  0.9354010469015898 0.250631300585664 0  0.04420832937638274 0.128125 0  0.8922386349349938 0.0992956419364831 0  0.1197849154434487 0.2663398672460083 0  1.248258025468107 0.2565907092181813 0  0.3746885856929528 0.370723531618974 0  1.203125 0.0366132337404304 0  0.5724622277005015 0.2751253816079333 0  0.3365425205162783 0.08395777655057959 0  2.072662025974815 0.2975086504196739 0  0.4581080832182547 0.3648371739579888 0  0.3874522734668214 0.2295447548840689 0  0.7827853612484443 0.04106550386289586 0  1.887722846421017 0.1760882698830035 0  1.472640588990488 0.1118278026240017 0  1.865937103925594 0.2604137786483804 0  1.463913572748262 0.2030442564990043 0  1.376426316059077 0.3186741374914345 0  0.6641993820150034 0.3141688596240831 0  0.2943117490824315 0.2130987422685822 0  0.3478153998082709 0.1666571081082676 0  0.3427990510599805 0.2575950027870776 0  0.7997118993855807 0.2216171933356366 0  
[...]
<PointData  Scalars="f_9-0"> 
<DataArray  type="Float64"  Name="f_9-0"  format="ascii">3.5716045868214969e-05  7.1943334769839992e-04  8.0136821205316062e-05  5.8199526729100925e-05  8.4388217204294099e-04  1.6587878260768938e-03  2.2123576137474269e-03  2.2927645969933390e-03  1.5968890318000049e-03  7.3838684852672659e-04  3.4328010713585407e-04  2.3407626531833913e-04  1.9122281146956147e-04  2.6432289016356650e-04  2.7180928968979804e-03  5.1557731870471521e-04  1.8834050559418357e-04  4.5136126067048627e-03  1.1343252638608859e-04  5.0587192901495881e-03  4.6335257014597887e-05  5.6603290032260353e-04  1.1302108896379297e-03  4.5938090875427236e-04  3.6367582085095867e-03  2.0576567503058267e-03  6.7489209113390670e-04  4.1684321618104487e-04  2.5498220947509185e-04  1.8158200449872445e-03  1.3900486959225432e-03  3.1459711454357837e-03  1.7342009526974123e-03  1.8708557061411569e-03  3.5752348340953939e-04  7.0873768467983038e-04  8.5749577704722539e-04  1.8779481752416853e-04  1.2572292885227443e-04  2.0487436281277778e-04  4.8408431052589631e-03  5.5733617858633651e-05  4.1281279818981565e-04  1.6557880168068745e-03  1.6012820767957086e-03  7.4570426066131222e-04  6.7766070349365229e-04  6.1678076642033403e-04  6.4842827324469103e-04  3.3311991423426134e-03  1.8782098839085882e-04  3.9158223477540714e-03  3.5490022593632127e-03  3.9065777664913909e-05  2.3499999809858730e-03  2.8918776018434606e-03  5.6915714428631807e-04  1.9069404946803949e-03  2.0918808644810366e-03  1.3539495565126978e-03  1.2582955132918500e-03  9.4421395816959256e-04  1.7782741897436315e-04  1.0979986355081472e-03  5.2877593142007647e-04  7.3922789109546420e-04  1.2187819851912180e-03  4.2601985623652288e-03  3.3935338010086104e-03  6.9233251839362494e-05  4.0340813480396667e-04  4.9466414923747331e-04  3.8739890059790311e-03  2.8929955354241176e-03  1.1588233495891465e-04  9.3593293841721925e-04  6.1831526700697667e-04  1.0781108470763283e-03  1.3999538392440486e-03  2.7685253290969732e-03  1.6760765775035882e-03  1.2544018205532855e-03  5.5446321699582825e-04  1.3807343190591187e-03  1.8334116449715832e-03  2.5702465905165918e-04  8.3348086940298672e-04  2.0364121740098313e-03  3.1669699204580244e-03  2.1131517665030704e-03  2.4407002083205892e-03  1.0379563765806402e-03  7.1976914171363314e-05  9.9133260386946630e-04  1.5098714834497246e-03  1.5296877035684815e-03  2.6725334476710486e-03  7.0353637534635485e-05  1.3974779676968923e-03  4.3786719789714957e-03  4.9863004826170843e-03  1.1409023568403431e-04  2.0328700947066882e-04  6.2994404081732447e-04  3.5597838922243716e-03  1.9730460470359303e-03  4.8022245525088138e-03  1.0093935381652961e-03  4.9534064415322971e-04  5.1444014522019396e-04  3.4376329039724176e-04  4.9846305959489415e-03  3.0319273091333223e-04  5.6756996475249410e-03  1.9723285988426809e-03  2.8542686451632628e-04  7.4196690985398994e-04  1.1743853700878023e-04  2.5576543507729687e-03  1.9517002927437559e-03  2.1364517879482957e-03  2.2267787856729174e-03  5.6340313660534018e-04  9.0177656375263623e-04  1.6751871362823436e-03  2.5267326336620424e-03  2.8931290491894949e-03  3.0259734080285380e-03  1.4719705503810638e-03  1.4400682879476794e-03  8.4738013165826625e-05  2.0661670708948970e-03  2.6947670190983516e-03  2.9147733362230594e-04  1.3598715151146759e-03  1.6758140847415596e-03  3.3808945830770443e-03  7.8056624317680547e-05  2.1901164662972658e-03  3.6351688949530155e-05  4.3831719538464938e-05  3.2898099685706801e-03  3.7242726257154712e-04  4.1905158366701513e-03  6.2959761057693533e-04  9.2589743954289130e-04  1.3151952923131001e-03  5.7071049966092417e-04  1.8350892358668695e-03  6.9460745238903137e-04  3.3663702338077744e-04  8.0663493159965118e-05  3.7180027624060048e-03  5.9680096340149235e-04  4.7063772070519167e-03  4.9550631794417149e-05  7.5051379908741791e-05  4.2319032580737078e-05  1.4177448211876722e-03  2.4943894481460169e-03  4.2215417372375554e-03  1.5480251508881180e-04  5.8320118768737713e-04  9.2914989497458272e-04  2.8091675545995824e-04  1.8759390256946248e-04  7.1670890762028290e-04  7.9408506915437020e-04  7.6225182128948057e-04  2.5847622641608304e-04  1.8130781399587432e-03  1.1242458684068120e-03  2.7606406366906941e-03  7.9551342771207797e-04  1.4300813150963606e-03  4.6758540543195386e-03  2.6641663244717558e-03  5.0530294041918643e-04  6.8924829548115652e-04  8.0499612449256425e-04  1.0312279962083669e-03  7.4179965311478439e-04  3.5605649051833769e-04  6.3493290757971922e-04  1.8017373588397499e-03  4.1739536125259206e-04  3.7057990120971649e-03  6.4109371297806604e-04  1.4767655412448633e-03  1.2264429578654594e-03  6.1377677827389196e-04  9.5877997382551523e-04  2.1007614544777350e-03  1.7343865879255876e-03  5.9967600843916110e-04  1.0749047242107380e-03  4.5360815304282476e-04  2.3704228712041727e-03  5.7244877039486740e-04  3.4021344777619347e-04  3.8564610767845499e-03  3.0276454201552789e-03  6.0553587295957402e-04  9.2758874858043627e-04  2.8632472295814352e-03  8.0850042118386705e-04  1.4245637694860688e-03  1.0715305273811318e-03  4.6402000405335094e-03  4.5613525738363719e-03  4.4211302793203209e-03  1.2242713362352782e-03  3.1381232222709197e-04  2.8323561969660419e-03  3.4271094268504252e-04  1.0547076132391888e-04  8.6442682955944615e-04  2.6697435785213373e-04  5.5390107030326831e-05  2.1819030336730244e-04  3.5848117373147104e-03  2.1214880034792394e-03  9.1583502889890978e-04  1.7367798311706579e-04  1.9230241090938708e-03  2.1401444775117533e-03  2.4881980054614985e-03  3.9002947886494717e-04  5.0221957944829266e-03  1.4922023538634097e-03  1.7376375326756865e-03  1.6784393852930257e-03  3.1136507990215693e-03  1.0201157417824541e-03  2.2420576836447866e-03  3.3378732993051682e-03  3.1426072723533859e-03  1.1306839483990090e-03  9.0454487437425807e-04  5.3344288049637532e-04  1.4740387176772503e-03  7.8350316388141317e-04  5.2551278203083109e-03  8.7336918268901532e-04  1.6388892356168675e-03  1.5171862568944363e-03  8.0302913851145916e-04  1.7102924900410988e-03  2.6659518613890285e-04  1.6421481407811059e-03  1.1966999827355813e-03  6.5285146952863868e-05  7.5449422831142844e-04  5.7281293840531289e-04  1.0342837239144357e-04  5.3015482319741641e-05  1.0192956885337709e-04  1.3179409635774063e-04  5.6390048633580868e-03  5.5889230742815123e-03  3.2767752702910764e-03  4.1740871150972008e-03  8.1408303792472397e-04  3.1073890536922758e-04  1.2351444783156181e-03  1.5379253258890138e-03  1.1502134524753936e-04  3.0425100021538279e-04  1.3806196643114405e-04  2.9608715251462045e-04  4.7380573026686081e-04  2.3597594415710435e-03  5.2592704856603958e-05  1.3596195022841948e-03  4.4666371988880368e-05  4.1365113703471020e-04  2.1940020391258250e-03  3.8426699312645116e-04  2.0478163223562663e-03  2.0641805546834399e-03  2.6190542803880422e-03  1.3982181455734779e-03  2.7439354489083227e-03  6.0069886623625231e-04  1.8172273713439376e-03  3.1102522215953132e-04  2.3308368899251147e-03  1.5632851671172083e-03  5.2513013333729635e-04  2.3140563639407392e-03  1.2330945258425457e-04  1.2233332228498948e-03  5.7468439919555116e-05  2.3890379162022010e-03  1.4333835893706557e-03  4.3719755824766973e-03  4.2355822601596911e-04  6.9613087141288718e-05  8.5724283861019119e-04  3.3880019296442347e-03  1.1630381974610925e-03  2.1435376621378767e-03  9.6229923631363913e-04  1.6792640588542942e-03  8.5620600595839554e-04  1.1251327721237604e-03  1.5657685110292104e-03  2.4065466165795048e-03  7.0434764329383934e-04  1.0912032012982032e-03  1.1834066982230529e-03  1.2602230525591352e-03  1.9561647768984722e-04  2.5651232322702541e-03  2.3524193978002937e-03  2.2491203655092100e-03  2.4876361477184031e-03  2.7175188910030807e-03  1.4912282342354893e-03  2.8997208961525369e-03  1.5504471242690901e-04  2.0366623882242503e-03  3.4989215696546424e-03  2.4159292200418791e-03  8.4310316091292317e-04  1.8081649462712838e-04  7.3613219123891264e-04  1.8176850509049573e-04  1.0135421160604434e-04  1.8845218281376877e-04  2.7991365568244215e-03  3.5746866789528463e-03  5.9860592471047322e-04  1.3123228700418741e-03  5.3088166175134640e-04  4.3498832603856589e-03  1.1696808266901536e-03  2.2659757277092435e-03  1.7197108560975626e-03  1.9873801574860528e-03  6.5807858437675107e-04  5.3854029626090145e-04  1.0258487605835018e-03  1.1308331030808485e-03  6.2861833055011631e-04  9.0406435272285331e-04  1.2988739471654303e-04  9.3947856121160957e-05  3.5729004907647791e-05  3.9576009835358677e-03  2.9226334215762045e-04  1.3251754301611058e-03  1.0876047632718787e-03  1.7974338584888592e-03  8.8899048591106668e-04  1.0266116009508750e-03  1.4778864519105800e-03  3.1485649624437781e-04  6.5151786154181120e-04  3.6084374385045585e-03  3.7178160269035320e-04  2.8891133026837969e-03  8.5019683032996917e-04  6.6671649834898049e-04  3.1446363580432432e-03  4.2116238444397476e-03  4.0777071771766128e-05  6.8051421461015973e-04  6.4225921831741379e-04  1.9460469820026007e-03  5.8033253324565794e-04  5.9179953107929399e-04  1.9005846929695603e-03  5.1237636728675455e-03  2.9506829851234598e-03  1.3863858276850919e-03  1.7630343458105199e-03  8.3494029444540680e-04  1.6467687721172635e-04  1.2633045868704065e-04  2.0515124953652858e-03  2.6653383658751945e-03  7.2185291278294139e-04  2.5898010347811581e-03  2.6613749336446930e-03  3.7281736675373530e-04  4.2017624795280176e-04  7.8234296958942622e-04  4.1875962405180209e-04  6.2135173815045007e-04  2.9482345753022285e-04  7.2468143360775021e-04  4.9292843299075177e-04  7.9492392028252998e-04  2.1067489164678117e-03  1.4034890988505312e-03  1.2127980566772778e-03  1.7335934959825455e-03  8.5496002011850928e-04  8.4561952124086333e-04  1.6168886555197206e-04  4.0673764261890720e-05  2.0558659822156992e-04  1.8541586469613524e-03  3.4502969641011182e-03  1.8581718502931215e-03  8.0924544587782137e-05  4.5256402874271013e-03  1.1638325200672332e-04  1.1630394080946454e-03  3.1597502584168324e-03  7.9012537855875609e-04  4.6677949549338321e-04  1.9387673537629058e-03  2.5752726021810874e-04  1.9578198026881299e-03  2.1943890223117550e-03  4.7487444436121392e-04  1.2149842724631585e-03  5.4788149608304164e-05  4.8129984214768603e-05  1.5602941843032899e-03  4.7857155572803710e-05  3.5350891423683042e-03  1.5672019494098694e-03  3.2002210413539581e-03  2.7892198667818519e-03  3.4372007359214649e-03  2.4209211988211393e-04  1.8522799867185902e-03  5.7628104893668976e-04  8.9432196000529927e-05  1.6579462678494499e-03  1.5563934389160052e-03  1.5156349000440170e-03  1.5602810241969708e-03  1.6144738939270018e-03  1.9194335514343330e-03  2.1496975731018471e-03  2.9605890005258177e-03  1.7932322539876487e-03  1.4634973982825038e-03  9.2474771547328323e-04  2.1443935656536885e-03  8.5077475595027904e-05  2.2171994418712111e-03  1.8590672970727965e-03  2.0745760225199523e-03  8.0672023766130478e-05  1.1998761173194819e-03  1.0165305380147643e-03  4.6679321134905340e-04  3.6774153378794621e-03  3.7236410029647195e-04  5.0910511230600427e-04  6.0659464453480011e-04  6.7902746243192296e-04  2.0655414333569174e-03  7.4723167925858189e-04  3.9497849080084762e-03  6.5540562430033101e-04  3.8193658852796783e-04  6.2482557382295863e-04  7.3674336842462402e-04  1.9764802550208292e-03  2.1349080292973723e-03  3.7681518147202210e-04  5.1064232456444092e-04  4.1906925444286076e-04  7.4620278920832115e-04  1.8478274731498767e-03  2.5326189004064381e-03  2.9134338765864926e-03  2.1246049825270367e-03  3.9695275749835925e-03  2.1416360878959632e-03  9.2635184346535047e-04  3.4100157628480033e-03  3.4766541887634034e-03  3.6115297628922026e-03  3.4348331053459121e-03  2.7731159055160217e-04  3.9515370158229782e-04  3.1805140559846186e-03  9.5964536821534056e-04  1.2957844344243488e-04  1.2799718385484626e-03  2.0902149396215151e-03  1.3675988131165045e-03  1.1977947690744175e-03  1.3878391811890656e-03  2.4735046250650562e-03  4.8680486876183345e-03  5.9679117538253865e-05  2.7067006811794456e-03  2.0757223322763079e-03  1.7272772486857249e-03  1.1341948930426486e-03  5.6023288619826768e-04  5.0705953092603699e-04  6.4811200510306104e-04  6.5329080819170578e-04  7.1398245159372232e-04  1.3027105274830125e-03  1.6782980832509874e-03  4.9406605908900629e-04  5.3731528673299609e-04  3.7344088101457071e-04  1.7479557893914613e-04  1.4589194568856380e-03  2.6151403061698427e-03  4.7676861007408004e-03  4.9152600449200983e-03  1.6249960878501681e-04  4.7516037281477799e-04  5.5387234915863176e-04  4.9379511976056474e-04  1.2497350295569353e-03  2.3185171604993269e-03  1.9382977530665339e-03  4.1911766052851376e-03  3.4988683645149842e-03  4.1223765709062022e-03  9.2465979591350729e-04  5.2705033739509986e-04  8.9333890789471560e-04  7.8736981891031294e-04  7.1849164354947936e-04  6.0036229797114679e-04  5.8629790901602136e-04  2.4915908181675343e-03  4.6571377273733018e-03  2.1509809155283864e-03  2.8673352143723661e-03  8.9955983319268636e-05  1.4444427405965735e-04  2.5945321694975654e-03  1.9551096854349714e-03  6.9156098572799502e-04  4.5631444369501832e-04  5.4584935383073007e-04  8.4482407274367088e-04  2.2681786157031158e-04  6.8688028205276619e-04  3.7934826355767409e-03  6.5730502302653162e-05  3.4605257413138860e-03  5.1866315249063827e-05  4.7775550274524884e-03  6.2823013501300750e-05  2.4484590733400546e-03  4.4407919558766511e-05  4.9928575219614591e-03  3.7432941559028021e-05  4.0608221352263886e-03  3.6672437968245145e-03  5.0443640523230339e-03  1.3415664858673648e-04  9.1732513868023323e-05  4.3751421536879533e-03  4.6236018809266075e-03  1.6254913591946544e-04  3.1855435365179124e-03  2.4151299753674233e-03  1.2391239002613988e-03  3.4321202982024205e-04  2.2913022238900270e-03  2.2994145198414610e-04  2.1746778687834216e-04  5.7323969156328994e-04  7.1361877690874888e-04  2.6659035164110149e-03  2.0779958150502530e-03  2.4002621850988067e-03  4.0521802575865067e-03  1.0524478678393869e-03  9.0801245485148019e-04  8.2666055537252076e-04  1.2102986570802529e-03  1.1094046533567938e-03  5.2851744416457127e-04  1.6002134163007454e-04  8.9444048576822722e-04  7.2665529108454025e-04  1.4573648223730534e-03  6.4514053754811766e-04  1.6986332374916266e-03  4.8624651463754047e-03  3.0907850435738073e-03  1.2074033450092125e-03  1.6445636210120945e-03  1.2530183690235639e-03  6.1497657175134369e-04  7.4070321477653065e-04  4.5612298552618117e-04  2.4854188882139886e-03  7.6883534368202039e-04  1.4813925571986112e-04  1.4132117928461227e-04  1.3897859834415066e-03  2.2018490994839669e-04  2.4467358736499068e-04  4.3641568479525691e-04  3.2046031462332281e-03  2.3102341434012055e-04  1.4058440464509950e-03  1.2632481819254793e-04  6.5339825524847754e-04  1.0429201423393425e-03  1.0989341516027113e-03  4.1894387266322820e-05  2.8443641388762643e-04  6.0885648514456868e-03  1.9201005317457968e-03  1.8253468434756134e-03  1.1399258975049687e-03  4.7776687361509072e-04  4.4871783893112770e-04  2.8157409528780570e-03  6.3787951554993255e-04  1.0670293893914910e-03  1.1232975731779507e-03  6.8544856923451886e-04  3.2876844282244934e-04  3.7735997508727996e-03  1.7456745146597057e-03  2.0929504138101234e-03  1.6193294058152125e-03  1.1041833378551919e-03  1.8736769484442208e-03  1.5735833350998393e-03  2.5012629701705825e-03  3.2003797609144477e-04  1.1473189390723887e-03  7.0409792559614681e-04  1.0143063038616710e-03  3.3324652840644093e-03  4.4816095551367787e-03  4.0194609895143158e-03  6.8653792504565941e-04  2.7406189596305675e-03  2.0159611392916708e-03  5.0819812970952132e-03  1.9846316285325851e-03  2.6097545830762827e-03  3.8040011874031802e-03  3.2367589000537539e-03  3.5570603247504182e-04  1.1335291988135458e-03  4.5506336662650933e-04  2.0325359287183468e-03  1.6183048151229716e-03  1.4939922553019612e-03  1.2346507655531371e-03  3.0775208451122500e-03  8.2034641094272300e-04  1.8450835890447700e-04  1.2475579553558828e-03  4.2627621695616831e-03  1.4552169469003939e-03  1.2002252409399300e-03  2.2323138190830818e-03  1.8897898400027321e-03  2.0487806432951628e-03  1.0275216162364833e-03  9.0681621659309487e-04  5.9487482986854813e-04  1.7371272087105293e-03  2.3973746883905833e-04  6.7261475008584769e-04  7.3046484739796398e-04  2.1296299806734054e-03  9.2501821716972014e-04  7.0649190849509172e-04  9.5532828053260081e-05  8.5242677480085196e-05  9.6199643831618739e-04  5.0561114186647342e-03  5.1944672608601685e-05  1.5160531859514215e-04  8.1975650919144242e-04  3.6860134670945501e-04  6.7360542891352023e-04  8.9945785600506448e-05  2.0851416993681671e-03  3.8964584808625838e-04  6.6461352092960337e-04  1.4115934650218065e-04  3.4253315364227605e-04  4.9117862224721124e-03  3.0459136716970729e-04  6.3364739860247664e-04  8.1487756672377846e-04  1.6525922504663174e-03  1.9115572873321114e-03  8.0552485150505880e-04  3.3788625052323586e-04  2.3471107358530368e-03  4.3919802799248604e-03  2.8970902860651982e-03  2.7417749443085795e-03  9.4899897054679739e-04  1.5442391555843694e-03  3.5677574520338669e-03  1.9398854244337237e-04  2.5011151515553290e-03  5.3963872281544828e-04  3.2735597873687745e-03  5.5430906426909404e-05  7.5355014582868265e-05  9.3139878141377034e-04  1.0564702170514301e-03  1.3282096756669236e-03  1.4667799699482882e-03  1.2591809934311151e-03  1.6141309248023938e-03  1.9349801074085595e-03  5.7461355981187380e-04  3.5238672152093195e-03  3.3540931460454763e-03  1.3471440462877115e-03  1.5030391698337875e-03  7.9130771870090043e-04  1.0323902412690297e-03  1.2380483534998328e-03  3.3191865918118485e-04  2.7697456428894085e-03  1.1439679980124293e-03  1.5532383678819642e-03  2.8217675215680194e-03  1.8971239243026166e-03  5.1065715245442644e-04  3.0684631538222006e-04  8.1347640011314595e-05  8.9655617242189844e-04  9.9137787447082376e-04  4.8577559577872630e-04  6.1343260620808603e-04  2.5012015062219516e-04  1.2018472714197873e-03  6.6127169367092978e-04  1.2706006490418439e-03  4.3422549533972069e-03  2.0869792230454420e-03  2.0699946051277798e-04  3.0283401230874478e-03  7.6266778012674551e-04  4.4665078443917525e-03  2.0605650606506927e-03  1.1876782759240282e-03  4.3007868269806159e-03  1.6519921037295260e-03  2.0914861231181824e-03  4.4267021278385568e-03  1.6028199293600118e-04  4.6693477406007787e-04  2.4907203980105788e-04  4.1118799764315757e-04  2.3911426938133575e-04  1.0775635027101959e-04  1.0641393198861275e-03  4.4904683240800704e-04  3.0119727194472131e-03  2.2407315018435807e-03  9.3970004998615315e-04  8.4888043562881426e-04  1.9835416458619704e-03  2.6603780222456863e-03  2.2634898854885293e-03  2.4190311390295529e-03  4.6735610818534751e-03  1.2877283953868185e-03  6.3843052271002701e-04  2.0043270638457613e-03  1.3128799449386118e-03  5.2224735764403655e-04  7.8925139316957785e-05  8.7519056529255330e-05  2.0855873064061321e-03  3.6980275733256270e-03  5.4346896447672833e-03  1.4068148956379758e-03  4.2519602883043663e-05  5.1118762135514547e-03  2.6866387460071947e-03  5.1460865797360202e-05  1.9849140880214911e-03  3.5770166556117262e-04  2.1554295038584019e-04  1.5149679757882361e-04  1.1190887306489995e-03  8.3657846650278512e-04  1.5498111516742933e-04  9.6912420834135613e-04  7.0282872192693356e-05  5.3451978769593128e-04  5.4313290800500237e-05  6.3381913859012344e-05  5.5215385284071404e-03  6.8360609847161946e-03  1.0110953983690745e-03  5.7373553735530697e-04  8.2557476578978221e-04  1.7441434912535284e-03  1.6368218611251997e-03  1.8803464597279664e-03  7.9714169920143548e-04  2.2923115600820298e-03  2.0280160669597399e-03  1.3079293454471271e-03  1.3703386415432248e-04  5.6295294596079139e-04  6.4289563591081857e-04  4.4872855205498063e-04  8.8660323170135084e-05  2.0866522852973769e-03  6.9131181691723981e-04  1.1786261532103876e-03  1.4580359612693442e-03  5.3837559139559732e-04  1.0579620467862812e-03  1.4074446921044904e-03  4.5797845128783231e-03  1.1871995597342465e-03  5.0185069058758698e-03  7.3158427544013692e-04  2.2840387516749792e-03  2.0622141905788974e-04  1.6625378156806725e-03  2.023499160050317