<?xml version="1.0"?>
<VTKFile type="UnstructuredGrid"  version="0.1"  >
<UnstructuredGrid>
<Piece  NumberOfPoints="3160" NumberOfCells="5316">
<Points>
<DataArray  type="Float64"  NumberOfComponents="3"  format="ascii">1.25 0 0  1.249623523370255 0.03067653565364036 0  1.248494320256466 0.06133459290927252 0  1.246613070848363 0.09195570449958429 0  1.243980908340246 0.1225214254119508 0  1.240599418248387 0.1530133439990203 0  1.236470637455976 0.1834130930692022 0  1.231597052986177 0.2137023609503765 0  1.225981600504038 0.2438629025201603 0  1.219627662548161 0.2738765501960873 0  1.21253906649318 0.3037252248790798 0  1.2047200822443 0.333390946843623 0  1.196175419665261 0.3628558465680779 0  1.186910225741296 0.3921021754986144 0  1.176930081478776 0.4211123167402751 0  1.166240998543424 0.4498687956687352 0  1.154849415639108 0.4783542904563622 0  1.142762194629413 0.5065516425062373 0  1.129986616404304 0.5344438667878526 0  1.116530376494394 0.5620141620682582 0  1.102401580435444 0.5892459210324971 0  1.087608738885889 0.61612274028723 0  1.07216076250034 0.642628430241527 0  1.056066956562134 0.6687470248588714 0  1.039337015378182 0.6944627912745027 0  1.02198101643948 0.7197602392723067 0  1.004009414350806 0.7446241306155417 0  0.9854330345332579 0.7690394882257835 0  0.9662630667034212 0.7929916052045569 0  0.9465110581331058 0.8164660536922209 0  0.9261889066936989 0.8394486935587729 0  0.9053088536893338 0.8619256809213336 0  0.8838834764831844 0.8838834764831843 0  0.8619256809213337 0.9053088536893337 0  0.8394486935587729 0.9261889066936989 0  0.8164660536922209 0.9465110581331055 0  0.7929916052045569 0.9662630667034212 0  0.7690394882257835 0.9854330345332578 0  0.7446241306155419 1.004009414350806 0  0.7197602392723067 1.02198101643948 0  0.6944627912745028 1.039337015378182 0  0.6687470248588716 1.056066956562134 0  0.642628430241527 1.07216076250034 0  0.6161227402872301 1.087608738885889 0  0.5892459210324973 1.102401580435444 0  0.5620141620682583 1.116530376494394 0  0.5344438667878527 1.129986616404304 0  0.5065516425062373 1.142762194629413 0  0.4783542904563623 1.154849415639108 0  0.4498687956687353 1.166240998543424 0  0.4211123167402751 1.176930081478776 0  0.3921021754986145 1.186910225741296 0  0.3628558465680779 1.196175419665261 0  0.333390946843623 1.2047200822443 0  0.30372522487908 1.21253906649318 0  0.2738765501960872 1.219627662548161 0  0.2438629025201604 1.225981600504038 0  0.2137023609503767 1.231597052986177 0  0.1834130930692022 1.236470637455976 0  0.1530133439990203 1.240599418248387 0  0.122521425411951 1.243980908340246 0  0.09195570449958432 1.246613070848363 0  0.06133459290927266 1.248494320256466 0  0.03067653565364033 1.249623523370255 0  7.654042494670958e-17 1.25 0  -0.03067653565364018 1.249623523370255 0  -0.06133459290927251 1.248494320256466 0  -0.09195570449958416 1.246613070848363 0  -0.1225214254119508 1.243980908340246 0  -0.1530133439990202 1.240599418248387 0  -0.1834130930692021 1.236470637455976 0  -0.2137023609503766 1.231597052986177 0  -0.2438629025201602 1.225981600504038 0  -0.2738765501960871 1.219627662548161 0  -0.3037252248790798 1.21253906649318 0  -0.3333909468436229 1.2047200822443 0  -0.3628558465680777 1.196175419665261 0  -0.3921021754986143 1.186910225741296 0  -0.4211123167402749 1.176930081478776 0  -0.4498687956687352 1.166240998543424 0  -0.4783542904563621 1.154849415639108 0  -0.5065516425062372 1.142762194629413 0  -0.5344438667878524 1.129986616404304 0  -0.5620141620682584 1.116530376494394 0  -0.5892459210324972 1.102401580435444 0  -0.61612274028723 1.087608738885889 0  -0.642628430241527 1.07216076250034 0  -0.6687470248588713 1.056066956562134 0  -0.6944627912745025 1.039337015378182 0  -0.7197602392723067 1.02198101643948 0  -0.7446241306155417 1.004009414350806 0  -0.7690394882257834 0.9854330345332579 0  -0.7929916052045567 0.9662630667034213 0  -0.8164660536922207 0.9465110581331059 0  -0.8394486935587731 0.9261889066936988 0  -0.8619256809213337 0.9053088536893337 0  -0.8838834764831843 0.8838834764831844 0  -0.9053088536893334 0.8619256809213338 0  -0.9261889066936986 0.8394486935587732 0  -0.9465110581331058 0.8164660536922208 0  -0.9662630667034212 0.7929916052045569 0  -0.9854330345332578 0.7690394882257836 0  -1.004009414350806 0.7446241306155419 0  -1.02198101643948 0.7197602392723068 0  -1.039337015378182 0.6944627912745027 0  -1.056066956562134 0.6687470248588714 0  -1.07216076250034 0.6426284302415273 0  -1.087608738885889 0.6161227402872302 0  -1.102401580435444 0.5892459210324973 0  -1.116530376494394 0.5620141620682586 0  -1.129986616404304 0.5344438667878525 0  -1.142762194629413 0.5065516425062374 0  -1.154849415639108 0.4783542904563624 0  -1.166240998543424 0.4498687956687354 0  -1.176930081478776 0.4211123167402754 0  -1.186910225741296 0.3921021754986143 0  -1.196175419665261 0.362855846568078 0  -1.2047200822443 0.3333909468436231 0  -1.21253906649318 0.3037252248790801 0  -1.219627662548161 0.2738765501960876 0  -1.225981600504038 0.2438629025201608 0  -1.231597052986177 0.2137023609503765 0  -1.236470637455976 0.1834130930692023 0  -1.240599418248387 0.1530133439990204 0  -1.243980908340246 0.122521425411951 0  -1.246613070848363 0.09195570449958466 0  -1.248494320256466 0.06133459290927246 0  -1.249623523370255 0.03067653565364041 0  -1.25 1.530808498934192e-16 0  -1.249623523370255 -0.0306765356536401 0  -1.248494320256466 -0.06133459290927215 0  -1.246613070848363 -0.09195570449958437 0  -1.243980908340246 -0.1225214254119507 0  -1.240599418248387 -0.1530133439990201 0  -1.236470637455976 -0.183413093069202 0  -1.231597052986177 -0.2137023609503762 0  -1.225981600504038 -0.2438629025201605 0  -1.219627662548161 -0.2738765501960873 0  -1.21253906649318 -0.3037252248790798 0  -1.2047200822443 -0.3333909468436228 0  -1.196175419665261 -0.3628558465680776 0  -1.186910225741296 -0.392102175498614 0  -1.176930081478776 -0.4211123167402752 0  -1.166240998543424 -0.4498687956687352 0  -1.154849415639108 -0.4783542904563621 0  -1.142762194629413 -0.5065516425062371 0  -1.129986616404304 -0.5344438667878523 0  -1.116530376494394 -0.5620141620682583 0  -1.102401580435444 -0.5892459210324971 0  -1.087608738885889 -0.6161227402872299 0  -1.07216076250034 -0.6426284302415269 0  -1.056066956562134 -0.6687470248588712 0  -1.039337015378182 -0.6944627912745025 0  -1.02198101643948 -0.7197602392723067 0  -1.004009414350806 -0.7446241306155416 0  -0.9854330345332579 -0.7690394882257834 0  -0.9662630667034213 -0.7929916052045566 0  -0.946511058133106 -0.8164660536922207 0  -0.9261889066936989 -0.8394486935587731 0  -0.9053088536893338 -0.8619256809213336 0  -0.8838834764831847 -0.8838834764831843 0  -0.8619256809213338 -0.9053088536893334 0  -0.8394486935587733 -0.9261889066936986 0  -0.8164660536922214 -0.9465110581331053 0  -0.7929916052045574 -0.9662630667034209 0  -0.7690394882257841 -0.9854330345332574 0  -0.7446241306155414 -1.004009414350806 0  -0.7197602392723066 -1.02198101643948 0  -0.6944627912745027 -1.039337015378182 0  -0.6687470248588716 -1.056066956562134 0  -0.6426284302415273 -1.07216076250034 0  -0.6161227402872302 -1.087608738885889 0  -0.5892459210324973 -1.102401580435444 0  -0.5620141620682586 -1.116530376494394 0  -0.5344438667878531 -1.129986616404304 0  -0.506551642506238 -1.142762194629413 0  -0.4783542904563629 -1.154849415639108 0  -0.4498687956687349 -1.166240998543424 0  -0.4211123167402749 -1.176930081478776 0  -0.3921021754986143 -1.186910225741296 0  -0.3628558465680781 -1.196175419665261 0  -0.3333909468436231 -1.2047200822443 0  -0.3037252248790802 -1.21253906649318 0  -0.2738765501960876 -1.219627662548161 0  -0.2438629025201608 -1.225981600504038 0  -0.2137023609503771 -1.231597052986176 0  -0.1834130930692029 -1.236470637455976 0  -0.1530133439990199 -1.240599418248387 0  -0.1225214254119506 -1.243980908340246 0  -0.09195570449958419 -1.246613070848363 0  -0.06133459290927254 -1.248494320256466 0  -0.03067653565364049 -1.249623523370255 0  -2.296212748401287e-16 -1.25 0  0.03067653565364003 -1.249623523370255 0  0.06133459290927207 -1.248494320256466 0  0.09195570449958373 -1.246613070848363 0  0.1225214254119501 -1.243980908340246 0  0.1530133439990195 -1.240599418248387 0  0.1834130930692024 -1.236470637455976 0  0.2137023609503766 -1.231597052986177 0  0.2438629025201604 -1.225981600504038 0  0.2738765501960872 -1.219627662548161 0  0.3037252248790797 -1.21253906649318 0  0.3333909468436227 -1.2047200822443 0  0.3628558465680776 -1.196175419665261 0  0.3921021754986139 -1.186910225741296 0  0.4211123167402745 -1.176930081478776 0  0.4498687956687345 -1.166240998543424 0  0.4783542904563625 -1.154849415639108 0  0.5065516425062375 -1.142762194629413 0  0.5344438667878527 -1.129986616404304 0  0.5620141620682583 -1.116530376494394 0  0.589245921032497 -1.102401580435444 0  0.6161227402872298 -1.087608738885889 0  0.6426284302415269 -1.07216076250034 0  0.6687470248588712 -1.056066956562134 0  0.6944627912745023 -1.039337015378182 0  0.7197602392723061 -1.02198101643948 0  0.7446241306155411 -1.004009414350806 0  0.7690394882257838 -0.9854330345332576 0  0.792991605204557 -0.9662630667034211 0  0.8164660536922209 -0.9465110581331058 0  0.8394486935587729 -0.9261889066936989 0  0.8619256809213336 -0.9053088536893338 0  0.8838834764831842 -0.8838834764831847 0  0.9053088536893333 -0.8619256809213339 0  0.9261889066936986 -0.8394486935587733 0  0.9465110581331053 -0.8164660536922214 0  0.9662630667034209 -0.7929916052045574 0  0.9854330345332574 -0.7690394882257843 0  1.004009414350806 -0.7446241306155416 0  1.02198101643948 -0.7197602392723066 0  1.039337015378182 -0.6944627912745027 0  1.056066956562134 -0.6687470248588716 0  1.07216076250034 -0.6426284302415274 0  1.087608738885889 -0.6161227402872304 0  1.102401580435443 -0.5892459210324974 0  1.116530376494394 -0.5620141620682587 0  1.129986616404304 -0.5344438667878532 0  1.142762194629413 -0.50655164250623
[...]
<PointData  Scalars="f_5673065"> 
<DataArray  type="Float64"  Name="f_5673065"  format="ascii">1.6810035396487772e+00  2.3189137958375299e+00  2.6417032301773675e+00  3.1738756761103111e+00  3.6156268263970519e+00  4.0923335406704355e+00  4.5075272107255504e+00  5.0458459138192380e+00  5.3251902333332533e+00  5.9714523756313858e+00  6.2783800441480215e+00  6.7171200556974391e+00  7.2988738697121942e+00  7.5589707438893425e+00  8.1415133630703131e+00  8.4313704613093243e+00  9.0394920298617354e+00  9.3743859321045413e+00  9.8715822024714388e+00  1.0233763232697870e+01  1.0779883380526261e+01  1.1166427241579727e+01  1.1549981442866370e+01  1.2063108680189613e+01  1.2541616513197130e+01  1.2894572762513206e+01  1.3501446613287554e+01  1.3786834275484146e+01  1.4315137223999486e+01  1.4747803093282929e+01  1.5198229311299068e+01  1.5659544957603190e+01  1.6156637459084141e+01  1.6467912009144520e+01  1.7053934559695165e+01  1.7538599617244444e+01  1.7876075448681359e+01  1.8380672939083745e+01  1.8681278798012837e+01  1.9480544942714609e+01  1.9453455302313746e+01  2.0502137044907311e+01  2.0633472113711708e+01  2.1351579229621660e+01  2.1738233702562905e+01  2.2145284124056815e+01  2.2920244260513893e+01  2.2949561405651124e+01  2.4023347005930002e+01  2.4171443041560288e+01  2.4970741771001652e+01  2.5205741449754854e+01  2.6197615646087375e+01  2.6265677437694826e+01  2.7410559036936075e+01  2.7747910298874420e+01  2.8391882037223894e+01  2.8879668080875394e+01  2.9722494667232844e+01  3.0342583231475874e+01  3.0824818221017008e+01  3.1641193207614290e+01  3.2419943179640548e+01  3.2833123010499612e+01  3.3978967361652302e+01  3.4283811930477256e+01  3.5307312170691020e+01  3.6095571027814742e+01  3.6898848433091530e+01  3.7395292473605501e+01  3.8641398016008822e+01  3.9624435395552602e+01  4.0183025366723506e+01  4.1677816692542208e+01  4.2792481405279311e+01  4.3473271555869417e+01  4.4060808790466233e+01  4.6422879653620967e+01  4.6405473315505560e+01  4.8149376179538912e+01  4.9451365205670797e+01  5.0459508722943866e+01  5.1839464589801580e+01  5.3126603499514140e+01  5.4178606477850721e+01  5.6302763504755191e+01  5.7145816508249631e+01  5.8433625498373985e+01  6.0283770394571853e+01  6.1844076075318526e+01  6.3355771342567714e+01  6.4895113486352827e+01  6.6612908418740261e+01  6.8125033006598528e+01  6.9951664800215198e+01  7.1903332451477127e+01  7.3464578924554871e+01  7.6070088616864908e+01  7.6907832461044038e+01  7.8653586135253363e+01  8.0654322654902842e+01  8.2539250400910774e+01  8.4071256978595343e+01  8.5612109840304299e+01  8.6642324513504775e+01  8.8283203800693116e+01  8.9341026880656685e+01  9.0031511568611080e+01  9.0994626056379488e+01  9.1071619130356865e+01  9.1802608981724461e+01  9.1097661797857214e+01  9.0024101736334501e+01  8.8318859811734725e+01  8.4868598197198210e+01  8.1702620967255370e+01  7.6726816240791493e+01  7.2035140115953524e+01  6.6578240002340578e+01  6.0966685906439707e+01  5.4624108221216694e+01  4.7571756561129590e+01  3.9434674809930861e+01  3.1886547233325846e+01  2.4102928128265500e+01  1.5347731509123479e+01  5.9733399962893925e+00  -3.1230240141485366e+00  -1.1934228456953450e+01  -2.0674504049543081e+01  -2.8853513511361676e+01  -3.7154475419755343e+01  -4.4926026304424752e+01  -5.1889051905028992e+01  -5.8927136448710669e+01  -6.5110139394158594e+01  -7.1843594642743156e+01  -7.7389337093092635e+01  -8.1614900017908880e+01  -8.5826939830940930e+01  -8.9501923293278210e+01  -9.2881338983685126e+01  -9.5810141975557173e+01  -9.6855606210986068e+01  -9.8442414095599730e+01  -9.8944768452748647e+01  -9.9366434436885910e+01  -9.9016863234323040e+01  -9.8449991792271078e+01  -9.7480270106323630e+01  -9.6229603737624132e+01  -9.5021475923907275e+01  -9.4260546420351105e+01  -9.3011967540934265e+01  -9.1440899145744282e+01  -8.9801657633949603e+01  -8.8073115225091755e+01  -8.6289470836973351e+01  -8.4301663790097905e+01  -8.2735984309669874e+01  -8.1262453599238370e+01  -7.9419988228219083e+01  -7.7616594065472484e+01  -7.6094864930317954e+01  -7.4274043116737460e+01  -7.2171531564370014e+01  -7.0402065849557943e+01  -6.8601446178032447e+01  -6.6862074534990356e+01  -6.5386132683593956e+01  -6.3559437399510585e+01  -6.1516467623062091e+01  -6.0297141246599665e+01  -5.8633014523871687e+01  -5.6608096912337047e+01  -5.5438888394827600e+01  -5.4281752167139246e+01  -5.2027297958300416e+01  -5.2069965751128642e+01  -4.8996827257054427e+01  -4.8559587077220137e+01  -4.6679256365163909e+01  -4.6125467562288314e+01  -4.4610650547066854e+01  -4.4254329823980882e+01  -4.1908619996676101e+01  -4.1334864002138055e+01  -4.0482833442577039e+01  -3.9134090224826934e+01  -3.8155712541172377e+01  -3.7091942427651283e+01  -3.6840446174383395e+01  -3.4931620887465343e+01  -3.4475558562333525e+01  -3.3433509332411084e+01  -3.2504369304080313e+01  -3.2026279093632269e+01  -3.0915857939162976e+01  -3.0325360214142162e+01  -2.9424434610983326e+01  -2.8465543293124039e+01  -2.7914973370535719e+01  -2.7174245499015029e+01  -2.6620524864971621e+01  -2.5527286386561631e+01  -2.5094921446965014e+01  -2.4404369954360721e+01  -2.3823696094083989e+01  -2.2936483629556285e+01  -2.2750721560250280e+01  -2.1600897381835075e+01  -2.1477527580550422e+01  -2.0367030401471165e+01  -2.0051738899081144e+01  -1.9424269917398679e+01  -1.8809639175510505e+01  -1.8165155561514201e+01  -1.7940779114381606e+01  -1.6751065298990287e+01  -1.6498499610584847e+01  -1.6031593337936105e+01  -1.5488476924821462e+01  -1.4799776013226081e+01  -1.4356206030266256e+01  -1.3772363079081220e+01  -1.3229481106229533e+01  -1.2749497647825153e+01  -1.2212861978464572e+01  -1.1679320307584716e+01  -1.1212651364247886e+01  -1.0587103022060614e+01  -1.0327577603485102e+01  -9.5074116262949815e+00  -9.2893516515027379e+00  -8.6024236206971061e+00  -8.1590133167114960e+00  -7.6460982826630968e+00  -7.2434662376594892e+00  -6.8336292284136944e+00  -6.1428489644426127e+00  -5.7574882974820492e+00  -5.3764752166403040e+00  -4.7031248916304538e+00  -4.4273052156715611e+00  -3.8369794115850380e+00  -3.4724987773524769e+00  -2.9082674733405938e+00  -2.5551763617747172e+00  -1.8720188805418363e+00  -1.6840044488888037e+00  -9.1330822010810886e-01  -5.7658159515855034e-01  -1.6104582317082322e-01  4.1327382547409797e-01  8.2894684081468417e-01  1.3551897440303053e+00  3.6384903438591616e+00  3.4743677801860322e+00  3.1536613995455776e+00  3.2174484567034152e+00  3.1037179871577472e+00  2.9556236181259816e+00  2.8037961261363398e+00  2.6087748261295789e+00  2.3793380992641668e+00  2.1269005093747535e+00  1.9655817870214463e+00  1.8591471847105157e+00  1.7374254162073459e+00  1.4386720779817082e+00  1.1718797469557092e+00  1.0050045931852762e+00  8.2659360268431104e-01  5.0635505826507077e-01  3.3117046450742527e-01  2.0951065338637700e-01  -3.9249059710610285e-01  -6.6700713786273758e-01  -8.4995534901391789e-01  -9.2781797822740963e-01  -1.4599989658161394e+00  -1.7806025634202804e+00  -2.4116643432005986e+00  -2.6573533499171864e+00  -3.1318941069815298e+00  -3.8331240665217252e+00  -4.0885791536046581e+00  -4.4463980458763643e+00  -4.8522545269665516e+00  -5.7466434022861641e+00  -6.0629424933793050e+00  -6.6228793671738435e+00  -7.6287870499583637e+00  -8.1934839956670498e+00  -8.8226420031336321e+00  -9.2778997779881749e+00  -1.0124555131678813e+01  -1.0802562877255060e+01  -1.1663853673981855e+01  -1.2552519470648448e+01  -1.3396038377398670e+01  -1.4248712371211322e+01  -1.5397377392105936e+01  -1.6296273683188303e+01  -1.7011631392348662e+01  -1.8008277043888793e+01  -1.9192342380203932e+01  -2.0401572495486729e+01  -2.1399046436917295e+01  -2.2295281790569014e+01  -2.3449943212652215e+01  -2.4741488259103757e+01  -2.6123456955179577e+01  -2.7508205308544426e+01  -2.8720806539231120e+01  -3.0000991216834802e+01  -3.1362369779871308e+01  -3.2891851153285025e+01  -3.4259640180646301e+01  -3.5917682602508023e+01  -3.7309051337947714e+01  -3.9113355386275437e+01  -4.0283150680689410e+01  -4.1920785046321498e+01  -4.3387086871004840e+01  -4.5151392302480417e+01  -4.7335326337494010e+01  -4.8981809595071354e+01  -5.0692613335941004e+01  -5.2614831142214776e+01  -5.4898893602485096e+01  -5.6453481027324528e+01  -5.8009579893660607e+01  -6.0234585176533805e+01  -6.2411996509448159e+01  -6.3944523108658892e+01  -6.5854563681431543e+01  -6.8497567501433934e+01  -6.9948774076387963e+01  -7.1363147614303898e+01  -7.3889456980453716e+01  -7.5812990266628205e+01  -7.7666520749306727e+01  -7.9777775186775116e+01  -8.2024774774544468e+01  -8.3853522754712486e+01  -8.4959564219244839e+01  -8.6813193228568821e+01  -8.8173328955616967e+01  -8.9303524142775686e+01  -9.1678891867119987e+01  -9.2941990935644270e+01  -9.3725534871309179e+01  -9.5149343146112784e+01  -9.6359380553668274e+01  -9.7213663286296921e+01  -9.8160311077065231e+01  -9.8731744131853105e+01  -9.8961283926181821e+01  -9.9485954341146950e+01  -9.9644047802094164e+01  -9.9512266090386134e+01  -9.9411135056470926e+01  -9.9035657552899522e+01  -9.8516193150305270e+01  -9.7978043610278320e+01  -9.6719054525750067e+01  -9.4920310509386411e+01  -9.2540680427373118e+01  -8.9504469298772975e+01  -8.6659343253936328e+01  -8.2985297174410647e+01  -7.8961862474668635e+01  -7.4922087454641201e+01  -7.0547323051829622e+01  -6.5915411442684146e+01  -6.0775198046262076e+01  -5.5882834038352833e+01  -5.0981253465029020e+01  -4.5624945504599360e+01  -3.9961292871969398e+01  -3.4399061015861413e+01  -2.9393606955579049e+01  -2.4066738180995557e+01  -1.8460742004082139e+01  -1.2378106096591859e+01  -5.8199516254710089e+00  1.0286939367307197e+00  6.8779101023404765e+00  1.3740450203835964e+01  1.9854598535270675e+01  2.5483322999755824e+01  3.1329753511318327e+01  3.7184973447604271e+01  4.2688881468980810e+01  4.8095667667160711e+01  5.3145373814078596e+01  5.8395789005603888e+01  6.2958100549112338e+01  6.7747767422667224e+01  7.2169173766624539e+01  7.5983445416896501e+01  7.9727428446925146e+01  8.3045474380263386e+01  8.5718267449299503e+01  8.8316807724794131e+01  9.0115114848837919e+01  9.1425026646245115e+01  9.2469602002873657e+01  9.3333714158913764e+01  9.3690655481381441e+01  9.3707491573414202e+01  9.3953286665530371e+01  9.3720052468587738e+01  9.3515169959659971e+01  9.2868484231307164e+01  9.1958562834536906e+01  9.1192800135131932e+01  9.0246829991990694e+01  8.9154220549545670e+01  8.8429039852508964e+01  8.7518422817988579e+01  8.5473729158128094e+01  8.4104143471431442e+01  8.3045783178498638e+01  8.0797394567328979e+01  7.9970647392052328e+01  7.8294425774651657e+01  7.7096763489012972e+01  7.5418342626141779e+01  7.4021502103295504e+01  7.2287251699035977e+01  7.0541600058371344e+01  6.8996101394519926e+01  6.7866525952114969e+01  6.5797311983740428e+01  6.4140359873898717e+01  6.3029792442010930e+01  6.1043283007979511e+01  5.9334623661101041e+01  5.7854599077501398e+01  5.6996455190475743e+01  5.4563148213234491e+01  5.3203935862803682e+01  5.1548190785994407e+01  5.0075636669923028e+01  4.7801616775623195e+01  4.6709190105221232e+01  4.5407677292387930e+01  4.4028082103155491e+01  4.2703120163574070e+01  4.1597671970248143e+01  4.0021899631724722e+01  3.8530252585873704e+01  3.7431507044438568e+01  3.6306146453598330e+01  3.4806334897861696e+01  3.3630432802519927e+01  3.2272529665588955e+01  3.1055064884042302e+01  2.9679169436237185e+01  2.8845727611922065e+01  2.7852257124575907e+01  2.6672533515346338e+01  2.5713463841613670e+01  2.4602633825005171e+01  2.3687468495504547e+01  2.2656425520291350e+01  2.1647646647054071e+01  2.1010210606970574e+01  2.0176390144306414e+01  1.9031441839875068e+01  1.8263911906596697e+01  1.7735548939151105e+01  1.6776492138558137e+01  1.6028112461113071e+01  1.5357175171622119e+01  1.4826229136750754e+01  1.4299550652120054e+01  1.3803488844588058e+01  1.2976112644716450e+01  1.2446012811509794e+01  1.2035708958568200e+01  1.1785661576744859e+01  1.1008379890496361e+01  1.0637534104655439e+01  1.0137420397480870e+01  9.6926353743778719e+00  9.0483670957536440e+00  8.8715485940921770e+00  8.5347662069983752e+00  8.2759261733279317e+00  7.9893807820263936e+00  7.6958239266256854e+00  7.3679759156548741e+00  7.1841420067365336e+00  6.8071562143627942e+00  6.4465861170748617e+00  6.2003436154264024e+00  5.9144407850907799e+00  5.7367858919997161e+00  5.4447967091644349e+00  5.2593703594038201e+00  5.2456484564013932e+00  5.0610118267457702e+00  4.8428297035518177e+00  4.6831430536700474e+00  4.5425487056607192e+00  4.3761503228691918e+00  4.2675994528365493e+00  3.9982931553935832e+00  3.7666414155039782e+00  1.5633320973296581e+00  4.8008955343240336e+00  -1.6467822247893849e+00  7.9177147285873763e+00  -5.0517378524749352e+00  1.1093936082487721e+01  -8.6508484961932837e+00  1.4387140918547420e+01  -1.2378596656212860e+01  1.8067426935149218e+01  -1.7002670517520315e+01  2.1620531535859556e+01  -2.1394835042217395e+01  2.5354273986840507e+01  -2.6573342178643735e+01  2.9237159344124375e+01  -3.2060611073774687e+01  3.3026045776890157e+01  3.2656367141186542e+00  -3.6911486624781176e+01  -3.5826301050082288e-01  6.6577973731985134e+00  -4.0385341263790329e+00  3.1974681187151934e+00  -2.3191976784279649e+00  3.8350027242386819e-01  5.6827566714035234e+00  3.7355779745979881e+01  -7.8353056977189262e+00  1.0061505662576135e+01  8.3378211043144255e+00  -4.1774808854725620e+01  -5.2360781214654892e+00  1.3472449748719237e+01  -1.1703470162050749e+01  1.1330262757669521e+01  -8.3335021446319235e+00  1.6461995063474004e+00  4.1803938894236133e+01  4.9110022638513868e+00  -2.5344528883134254e+00  1.8330973714327248e+00  1.6953479852498447e+01  -1.6101304359414538e+01  8.3411083685046634e+00  1.4764784337863912e+01  -1.2695004078304038e+01  -4.6959348038291182e+01  -6.3763479037465549e+00  1.2186338701640238e+01  -1.0100010976945457e+01  4.6674125216982063e+01  -2.0522186428747947e+01  2.0526079114213882e+01  -3.3646569679006308e+00  -8.3579410246962071e-01  -5.1783589457947983e+01  1.5702030334939321e+01  -1.4195867598732979e+01  -9.4393289383344712e+00  1.8072995795129899e+01  4.3805793474167611e+00  6.9271047219181785e+00  -1.6921988785651397e+01  9.6405647938617900e+00  1.2495984785032276e+01  2.3915525168254533e+01  -2.4685652784092593e+01  5.1232819676964695e+01  1.8780381676395255e+01  -5.6884554253632373e+01  -5.7762621140208310e+00  2.2577928210306375e+01  -2.1896790930537360e+01  -1.8325845923171293e+01  -1.3827164471324686e+01  5.6259294516571750e+01  6.5842759086155791e+00  -3.0172849096444965e-01  2.2375435326671390e+01  2.7707308486854433e+01  -3.0331028214373973e+01  1.9903595377028189e+01  -2.2726359617637996e+01  3.5366320584847601e+00  -6.2225907611308465e+01  -2.6177163214679190e+01  2.6890997900708776e+01  9.6569936520275288e+00  3.1320275225536090e+01  1.5597819978246376e+01  -6.5147483783722606e+00  -1.8383939077642165e+01  -2.9363689706297831e+00  6.1050692438392886e+01  2.5672453590014094e+01  -2.7139781572033609e+01  -1.0074477671605949e+01  -3.4986970052664098e+01  1.2903576304507766e+01  -6.7443614973987223e+01  2.7200191075026070e+00  6.0842525045020741e+00  4.6146535155996204e-01  3.1358053722084076e+01  -5.3256495888490498e+00  -1.5035146629281211e+00  -3.8525653214041138e+00  -3.2705455175164843e+01  9.6534047057338714e+00  1.9392486803793659e+01  1.0741633685224281e+00  3.9851140627694410e+00  6.5169379196610748e+01  2.4023348039501329e+01  8.8727084305761021e+00  2.3366397883814423e+00  2.9413688424849884e+01  1.1281778193881841e+01  -2.8775663489563065e+01  3.5272130335314721e+01  3.4908272272728752e+01  2.2527586036860106e+00  -5.8911975924261906e-01  7.3889277111340963e+00  -2.3490527176759105e+01  -7.2937774549070298e+01  4.9631169389414742e-01  -1.4039499840832661e+00  1.5682739532688412e+01  3.3276834011067695e+00  3.9064232852493589e+01  -4.1978734014810319e+00  -3.2421736853568412e+01  2.5712617449277069e+00  -3.7431346925733429e+01  1.4544190353205249e+00  5.7355603159152690e-01  6.9395835304629927e+01  -3.9734711626829224e+01  -9.2731134380002320e+00  -7.7116672215031912e+00  -2.9764921966328575e+00  1.4906064916344310e+01  4.4958772683221495e+00  5.4445607641131009e+00  4.1622044439385535e+00  -3.7315857055118937e+00  5.8174503084387457e+00  -1.8823950115175563e+01  1.4390335334404257e+01  1.3438514957272856e+01  -2.8897019180080807e+00  -1.4103080651611030e+01  1.0774987388319797e+01  7.3953938502826988e+00  -1.4787806094273190e+00  -1.0242350076472182e+01  -1.3244050805711366e+01  -1.1536922827441572e+01  -6.4705562109360262e+00  3.3061150192149384e+01  -1.5282825982350412e+01  2.8748589735925929e+01  -1.0420111399624659e+01  5.1995303173407592e+00  6.6471170562309077e+00  7.4213986227509166e+00  -8.6559149076276150e+00  -6.3508493039760650e-01  -4.9625762424494786e+00  1.6456888960079123e+01  2.3106828502646461e+01  -4.4840862017092007e+01  -7.7586835973500939e+01  3.9732007408274931e+01  1.7041779559673493e+01  1.2271266689370393e+01  -6.8813327034212817e+00  -9.3474112742434343e+00  -1.5848281162005973e+01  -1.7533265027689946e+01  -3.7230504237402968e+01  1.0059492608658708e+01  9.3061874589233184e+00  -1.1704288107152649e+01  8.4607648357921832e+00  -6.9922718446675676e+00  -5.5788486464647118e+00  -4.2283300948955514e+01  7.4805835678122989e+01  4.3263372993064628e+01  1.8172673910038466e+01  -3.6125724299064501e+00  3.9559211889670167e+00  1.7211526895040478e+01  -5.4648874646137124e-01  -1.2033721601381064e+01  -1.9271431716399567e+00  3.6764067651202488e+01  8.6433210155560825e-01  6.8772644001766619e+00  1.2457717797714716e+01  -8.1783258370108996e+01  -2.4601306927646156e+01  1.0853758453455661e+01  -5.3507398606405072e+00  -8.2926394590466650e+00  2.6862874006981947e+01  -1.4621836929426367e+01  4.6032243155410860e+01  -1.0621658334209613e+01  2.0169533499472031e+01  2.1731984681399091e+01  5.2037992184442041e+00  -4.2079993446786823e+01  -2.8435565196195334e+01  1.3031221637971308e+01  1.5547855146198442e+01  7.9236847511663910e+01  1.4234048122455835e+01  -1.9992801575630633e+01  -2.1866107783024461e+01  4.7909643048651482e+01  5.4068723824695004e+00  1.9184780468508149e+00  8.3092012536208859e+00  3.9707980079392351e-02  9.3942030552065088e+00  -4.8739750253915155e+01  -4.8673427793135538e+01  1.3620704618128407e+01  3.8888304898220847e+00  -3.0978586726848447e+00  -2.9200572881264900e+01  1.9294654592515251e+01  -5.4044479034603889e+01  -1.6944036862961390e+01  4.1022972067243273e+01  -8.5677777956278206e+01  5.0792397011644695e+01  2.0182562063103504e+01  7.9231055418452998e+00  1.0594114194864517e+01  2.2961490344506212e+00  -1.5425788801374607e+00  4.2562095500496945e+01  9.3369691953164899e+00  -5.4169583624693949e+01  2.0763489915507275e+01  -1.3294397744368972e+01  3.0755372369137294e+01  8.3254553358259983e+01  -1.8839329191852638e+01  -6.3910016601370350e+00  -2.0624232723912620e+01  1.2628113554811803e+01  2.4629213729021171e+01  -2.3154074641639223e+01  -4.5092765254915605e+01  -2.6163826797646447e+01  -2.4197729410772872e+01  2.5064080149315132e+01  2.3669718376867113e+01  -8.9651121968280648e+01  -7.3559559449875387e+00  -1.8269888751288452e+01  -3.4702878938469439e+01  -3.4993786577220483e+01  1.7474030737237591e+01  1.5653843708522787e+01  -1.9296540290863195e+01  -1.6666548330697900e+01  9.0303051178877247e+00  3.3260791791573304e+01  2.7728836273063022e+00  3.5579963203542789e+01  -1.2921058522374842e+01  3.7359898862589915e+01  -5.8796545220721420e+01  5.1852058832955436e+01  1.2882347610874380e+01  1.1571500662544761e+01  -3.9762136661411034e+01  2.0180468724766058e+01  -1.0269037531161910e+01  1.7226193829024471e+01  8.6220608212905290e+01  4.5403033031518113e+01  -5.1147210112504411e+01  -2.1304505742782556e+01  -3.0423182910464192e+01  2.1928255407466409e+01  -2.2792052575069275e+00  -1.4774797689250084e+01  1.5901594167642287e+01  3.9706067027404728e+01  2.7098700822195692e+01  6.0189657179536180e+00  -7.1440230165274885e+00  -3.9006600212935375e+01  1.4099061431016498