<?xml version="1.0"?>
<VTKFile type="UnstructuredGrid"  version="0.1"  >
<UnstructuredGrid>
<Piece  NumberOfPoints="6869" NumberOfCells="12420">
<Points>
<DataArray  type="Float64"  NumberOfComponents="3"  format="ascii">2 0 0  1.999397637392408 0.04908245704582458 0  1.997590912410345 0.09813534865483603 0  1.99458091335738 0.1471291271993349 0  1.990369453344394 0.1960342806591212 0  1.98495906919742 0.2448213503984324 0  1.978353019929562 0.2934609489107235 0  1.970555284777882 0.3419237775206024 0  1.961570560806461 0.3901806440322565 0  1.951404260077057 0.4382024803137396 0  1.940062506389088 0.4859603598065277 0  1.92755213159088 0.5334255149497967 0  1.913880671464418 0.5805693545089247 0  1.899056361186073 0.627363480797783 0  1.883088130366042 0.6737797067844401 0  1.865985597669478 0.7197900730699762 0  1.847759065022573 0.7653668647301796 0  1.828419511407061 0.8104826280099797 0  1.807978586246887 0.8551101868605642 0  1.786448602391031 0.8992226593092131 0  1.76384252869671 0.9427934736519953 0  1.740173982217423 0.9857963844595681 0  1.715457220000544 1.028205488386443 0  1.689707130499414 1.069995239774194 0  1.66293922460509 1.111140466039204 0  1.635169626303167 1.151616382835691 0  1.60641506296129 1.191398608984867 0  1.576692855253213 1.230463181161254 0  1.546020906725474 1.268786568327291 0  1.514417693012969 1.306345685907554 0  1.481902250709918 1.343117909694037 0  1.448494165902934 1.379081089474134 0  1.414213562373095 1.414213562373095 0  1.379081089474134 1.448494165902934 0  1.343117909694037 1.481902250709918 0  1.306345685907554 1.514417693012969 0  1.268786568327291 1.546020906725474 0  1.230463181161254 1.576692855253212 0  1.191398608984867 1.60641506296129 0  1.151616382835691 1.635169626303167 0  1.111140466039205 1.66293922460509 0  1.069995239774195 1.689707130499414 0  1.028205488386443 1.715457220000544 0  0.9857963844595682 1.740173982217423 0  0.9427934736519956 1.76384252869671 0  0.8992226593092132 1.786448602391031 0  0.8551101868605644 1.807978586246887 0  0.8104826280099797 1.828419511407061 0  0.7653668647301797 1.847759065022573 0  0.7197900730699766 1.865985597669478 0  0.6737797067844401 1.883088130366042 0  0.6273634807977831 1.899056361186073 0  0.5805693545089247 1.913880671464418 0  0.5334255149497968 1.92755213159088 0  0.485960359806528 1.940062506389088 0  0.4382024803137395 1.951404260077057 0  0.3901806440322567 1.961570560806461 0  0.3419237775206027 1.970555284777882 0  0.2934609489107235 1.978353019929562 0  0.2448213503984326 1.98495906919742 0  0.1960342806591215 1.990369453344394 0  0.1471291271993349 1.99458091335738 0  0.09813534865483625 1.997590912410345 0  0.04908245704582453 1.999397637392408 0  1.224646799147353e-16 2 0  -0.04908245704582428 1.999397637392408 0  -0.09813534865483602 1.997590912410345 0  -0.1471291271993347 1.99458091335738 0  -0.1960342806591213 1.990369453344394 0  -0.2448213503984323 1.98495906919742 0  -0.2934609489107233 1.978353019929562 0  -0.3419237775206025 1.970555284777882 0  -0.3901806440322564 1.961570560806461 0  -0.4382024803137393 1.951404260077057 0  -0.4859603598065277 1.940062506389088 0  -0.5334255149497966 1.92755213159088 0  -0.5805693545089243 1.913880671464418 0  -0.6273634807977828 1.899056361186073 0  -0.6737797067844399 1.883088130366042 0  -0.7197900730699763 1.865985597669478 0  -0.7653668647301795 1.847759065022573 0  -0.8104826280099795 1.828419511407061 0  -0.8551101868605637 1.807978586246887 0  -0.8992226593092134 1.78644860239103 0  -0.9427934736519954 1.76384252869671 0  -0.985796384459568 1.740173982217423 0  -1.028205488386443 1.715457220000544 0  -1.069995239774194 1.689707130499414 0  -1.111140466039204 1.662939224605091 0  -1.151616382835691 1.635169626303167 0  -1.191398608984867 1.60641506296129 0  -1.230463181161253 1.576692855253213 0  -1.268786568327291 1.546020906725474 0  -1.306345685907553 1.514417693012969 0  -1.343117909694037 1.481902250709918 0  -1.379081089474134 1.448494165902934 0  -1.414213562373095 1.414213562373095 0  -1.448494165902934 1.379081089474134 0  -1.481902250709918 1.343117909694037 0  -1.514417693012969 1.306345685907553 0  -1.546020906725474 1.268786568327291 0  -1.576692855253212 1.230463181161254 0  -1.60641506296129 1.191398608984867 0  -1.635169626303167 1.151616382835691 0  -1.662939224605091 1.111140466039204 0  -1.689707130499414 1.069995239774194 0  -1.715457220000544 1.028205488386444 0  -1.740173982217423 0.9857963844595683 0  -1.76384252869671 0.9427934736519957 0  -1.78644860239103 0.8992226593092137 0  -1.807978586246887 0.8551101868605641 0  -1.828419511407061 0.8104826280099798 0  -1.847759065022573 0.7653668647301798 0  -1.865985597669478 0.7197900730699767 0  -1.883088130366041 0.6737797067844407 0  -1.899056361186073 0.6273634807977828 0  -1.913880671464418 0.5805693545089248 0  -1.92755213159088 0.533425514949797 0  -1.940062506389088 0.4859603598065281 0  -1.951404260077057 0.4382024803137401 0  -1.961570560806461 0.3901806440322572 0  -1.970555284777882 0.3419237775206024 0  -1.978353019929562 0.2934609489107236 0  -1.98495906919742 0.2448213503984327 0  -1.990369453344394 0.1960342806591217 0  -1.99458091335738 0.1471291271993355 0  -1.997590912410345 0.09813534865483593 0  -1.999397637392408 0.04908245704582465 0  -2 2.449293598294706e-16 0  -1.999397637392408 -0.04908245704582416 0  -1.997590912410345 -0.09813534865483545 0  -1.99458091335738 -0.147129127199335 0  -1.990369453344394 -0.1960342806591212 0  -1.98495906919742 -0.2448213503984322 0  -1.978353019929562 -0.2934609489107232 0  -1.970555284777883 -0.3419237775206019 0  -1.961570560806461 -0.3901806440322567 0  -1.951404260077057 -0.4382024803137396 0  -1.940062506389088 -0.4859603598065276 0  -1.92755213159088 -0.5334255149497965 0  -1.913880671464418 -0.5805693545089242 0  -1.899056361186074 -0.6273634807977824 0  -1.883088130366042 -0.6737797067844402 0  -1.865985597669478 -0.7197900730699762 0  -1.847759065022574 -0.7653668647301793 0  -1.828419511407061 -0.8104826280099794 0  -1.807978586246887 -0.8551101868605636 0  -1.786448602391031 -0.8992226593092133 0  -1.76384252869671 -0.9427934736519953 0  -1.740173982217423 -0.9857963844595679 0  -1.715457220000544 -1.028205488386443 0  -1.689707130499414 -1.069995239774194 0  -1.662939224605091 -1.111140466039204 0  -1.635169626303167 -1.151616382835691 0  -1.60641506296129 -1.191398608984866 0  -1.576692855253213 -1.230463181161253 0  -1.546020906725474 -1.268786568327291 0  -1.51441769301297 -1.306345685907553 0  -1.481902250709918 -1.343117909694037 0  -1.448494165902934 -1.379081089474134 0  -1.414213562373095 -1.414213562373095 0  -1.379081089474134 -1.448494165902934 0  -1.343117909694037 -1.481902250709918 0  -1.306345685907554 -1.514417693012968 0  -1.268786568327292 -1.546020906725473 0  -1.230463181161255 -1.576692855253212 0  -1.191398608984866 -1.60641506296129 0  -1.15161638283569 -1.635169626303168 0  -1.111140466039204 -1.66293922460509 0  -1.069995239774195 -1.689707130499414 0  -1.028205488386444 -1.715457220000544 0  -0.9857963844595684 -1.740173982217423 0  -0.9427934736519957 -1.76384252869671 0  -0.8992226593092139 -1.78644860239103 0  -0.8551101868605649 -1.807978586246886 0  -0.8104826280099807 -1.828419511407061 0  -0.7653668647301807 -1.847759065022573 0  -0.7197900730699759 -1.865985597669478 0  -0.6737797067844399 -1.883088130366042 0  -0.6273634807977829 -1.899056361186073 0  -0.5805693545089249 -1.913880671464418 0  -0.5334255149497971 -1.92755213159088 0  -0.4859603598065282 -1.940062506389088 0  -0.4382024803137402 -1.951404260077057 0  -0.3901806440322573 -1.961570560806461 0  -0.3419237775206034 -1.970555284777882 0  -0.2934609489107246 -1.978353019929562 0  -0.2448213503984319 -1.98495906919742 0  -0.1960342806591209 -1.990369453344394 0  -0.1471291271993347 -1.99458091335738 0  -0.09813534865483606 -1.997590912410345 0  -0.04908245704582478 -1.999397637392408 0  -3.673940397442059e-16 -2 0  0.04908245704582404 -1.999397637392408 0  0.09813534865483532 -1.997590912410345 0  0.147129127199334 -1.99458091335738 0  0.1960342806591202 -1.990369453344394 0  0.2448213503984312 -1.98495906919742 0  0.2934609489107239 -1.978353019929562 0  0.3419237775206027 -1.970555284777882 0  0.3901806440322566 -1.961570560806461 0  0.4382024803137395 -1.951404260077057 0  0.4859603598065275 -1.940062506389088 0  0.5334255149497964 -1.92755213159088 0  0.5805693545089241 -1.913880671464418 0  0.6273634807977823 -1.899056361186074 0  0.6737797067844392 -1.883088130366042 0  0.7197900730699752 -1.865985597669478 0  0.76536686473018 -1.847759065022573 0  0.8104826280099801 -1.828419511407061 0  0.8551101868605643 -1.807978586246887 0  0.8992226593092132 -1.786448602391031 0  0.9427934736519952 -1.76384252869671 0  0.9857963844595677 -1.740173982217423 0  1.028205488386443 -1.715457220000544 0  1.069995239774194 -1.689707130499414 0  1.111140466039204 -1.662939224605091 0  1.15161638283569 -1.635169626303168 0  1.191398608984866 -1.606415062961291 0  1.230463181161254 -1.576692855253212 0  1.268786568327291 -1.546020906725474 0  1.306345685907554 -1.514417693012969 0  1.343117909694037 -1.481902250709918 0  1.379081089474134 -1.448494165902934 0  1.414213562373095 -1.414213562373095 0  1.448494165902933 -1.379081089474134 0  1.481902250709918 -1.343117909694037 0  1.514417693012968 -1.306345685907554 0  1.546020906725473 -1.268786568327292 0  1.576692855253212 -1.230463181161255 0  1.60641506296129 -1.191398608984866 0  1.635169626303167 -1.15161638283569 0  1.66293922460509 -1.111140466039204 0  1.689707130499414 -1.069995239774195 0  1.715457220000544 -1.028205488386444 0  1.740173982217423 -0.9857963844595685 0  1.76384252869671 -0.9427934736519958 0  1.78644860239103 -0.899222659309214 0  1.807978586246886 -0.8551101868605651 0  1.828419511407061 -0.8104826280099808 0  1.847759065022573 -0.7653668647301808 0  1.865985597669478 -0.719790073069976 0  1.883088130366042 -0.67377970678444 0  1.899056361186073 -
[...]
<PointData  Scalars="f_5766306"> 
<DataArray  type="Float64"  Name="f_5766306"  format="ascii">1.2300181541128135e-03  3.2996335416163987e-02  7.0172180068294704e-02  1.0060346021967530e-01  1.3886531442487535e-01  1.6950607387981864e-01  2.0568051751942767e-01  2.3379928276950734e-01  2.7275961994038694e-01  3.0000802444597124e-01  3.3194068099514240e-01  3.6467517275825934e-01  3.9435684114380898e-01  4.2260257622833275e-01  4.5034215781004411e-01  4.7915877712167404e-01  5.0979689492255331e-01  5.3409817965086204e-01  5.6570125393502813e-01  5.8908563860958507e-01  6.0876529074612074e-01  6.3198690811868785e-01  6.5535335043958887e-01  6.7510142463565637e-01  6.9477425150493555e-01  7.1415724985637197e-01  7.3129134363765924e-01  7.4717156785328898e-01  7.6144229677217679e-01  7.7264667933852416e-01  7.8261047575209663e-01  7.9348533180456660e-01  7.9952146874347851e-01  8.0185808447954621e-01  8.0802713920273239e-01  8.1122070625785547e-01  8.1105300857882801e-01  8.0933278985414947e-01  8.0396700115662822e-01  7.9746507408734013e-01  7.9026245996451761e-01  7.7657043824227523e-01  7.6180506303250017e-01  7.4963340517273158e-01  7.3317094812283745e-01  7.1652507923528652e-01  6.9148209950794803e-01  6.6924413998404897e-01  6.4152314563748869e-01  6.1844293347984391e-01  5.9132299704403546e-01  5.5572338138095845e-01  5.2774403817559257e-01  4.9103364806999555e-01  4.5040169401165231e-01  4.1145847292848670e-01  3.7186132161201652e-01  3.2158254289428373e-01  2.8633641560180784e-01  2.3761102806749787e-01  1.9881528458599756e-01  1.4535730829335292e-01  8.5614436449417297e-02  5.0042662026319712e-02  -3.0239711023640919e-03  -7.2783933453504202e-02  -1.1477074207948386e-01  -1.9436501866511513e-01  -2.4297226218002915e-01  -3.2274529211721409e-01  -3.7859986067665635e-01  -4.5829453215258564e-01  -5.0424654580066430e-01  -5.7599573229664203e-01  -6.6592932632360180e-01  -6.8399631770857949e-01  -7.8230673327991274e-01  -8.2950318912514920e-01  -9.2825102012904614e-01  -1.0208826235203809e+00  -1.0591567459975655e+00  -1.1145812384091258e+00  -1.2018961434973914e+00  -1.2244367812100805e+00  -1.2615803736960853e+00  -1.3453246013352875e+00  -1.3649679532935599e+00  -1.3869419589336711e+00  -1.3030114906227974e+00  -1.3427728128265970e+00  -1.3332680956598266e+00  -1.3217890116469431e+00  -1.2903797049877865e+00  -1.2179321159599534e+00  -1.0259665799561763e+00  -8.2962998115505415e-01  -8.2803195675207253e-01  -6.5142154646664374e-01  -4.3362468781814861e-01  -1.7792436619988183e-01  4.1920197269307582e-02  4.8078581653178609e-01  8.4773293565285124e-01  1.4611399800465539e+00  2.0977030051570233e+00  2.4655965213455899e+00  3.0927251827708382e+00  4.1117357391416940e+00  5.0149623108410122e+00  6.2243312299704403e+00  7.1833303246295772e+00  8.0145294928978590e+00  8.7538306557618437e+00  9.4061293820779461e+00  1.0060978816174559e+01  1.0613203580214103e+01  1.1073237736835138e+01  1.1343302834569561e+01  1.1343035100028070e+01  1.1243862210986299e+01  1.1003923130306756e+01  1.0310771862433278e+01  9.5727640014306612e+00  8.4678027443229169e+00  7.2593603140147254e+00  6.2144678130560624e+00  4.5449877043402749e+00  2.8972526510799339e+00  1.1816897935131214e+00  -5.8809951436727148e-01  -2.0442592649852633e+00  -3.6049585214865623e+00  -4.7804526670695253e+00  -5.9046223876802602e+00  -6.9153645358843336e+00  -7.4985041105196579e+00  -7.7113572610924548e+00  -7.8904739575372309e+00  -8.0000794954279524e+00  -7.6967644090528990e+00  -7.3960288662315641e+00  -6.9522559705664673e+00  -6.2699116235781407e+00  -5.5682330615069517e+00  -4.9329826425255687e+00  -4.0564274887721119e+00  -3.3983656466545327e+00  -2.8608488074895817e+00  -2.2140685626798389e+00  -1.6353002379380031e+00  -1.2312286272844599e+00  -8.5445087813688503e-01  -3.5217653396829091e-01  -2.0696868063422072e-01  3.3757599025450967e-02  5.0298163163459431e-01  4.6332388964543869e-01  6.4837689088980188e-01  8.5697220390056417e-01  9.1655362214722547e-01  9.8346476576466990e-01  1.0793358644790410e+00  1.1595561191800121e+00  1.1570427013268538e+00  1.1777993257235355e+00  1.2591411348662005e+00  1.1953884037365443e+00  1.1766753791842270e+00  1.1947674270302229e+00  1.1854033856152721e+00  1.1437535824499514e+00  1.1490372861501792e+00  1.1126541634759661e+00  1.0690974590059918e+00  9.9330479243198988e-01  9.4721673427833386e-01  9.0227926596388242e-01  8.5653535992950514e-01  8.0017151887001325e-01  7.2472005372216808e-01  6.4079612799303032e-01  5.7932847241834540e-01  5.1127222641949965e-01  4.8580207187584074e-01  4.0286263275654272e-01  3.4895345121349330e-01  2.9321123468574450e-01  2.5255677986995806e-01  1.9825858528070617e-01  1.3380089957019384e-01  7.2639108065405397e-02  2.2007127784590037e-02  -2.9737002003985560e-02  -7.6490269789992404e-02  -1.1494180467565653e-01  -1.6639178741502805e-01  -2.1212005796219874e-01  -2.5799254712736380e-01  -2.9256670481630598e-01  -3.3732319123810484e-01  -3.7935632063914965e-01  -4.1314878404133609e-01  -4.5793505554012781e-01  -4.9246274964802378e-01  -5.2739148248827172e-01  -5.5924377027287819e-01  -5.9468559151536338e-01  -6.2369332486088347e-01  -6.4794179527590101e-01  -6.7221813961063659e-01  -6.9816329213471895e-01  -7.1889884012461058e-01  -7.4370022443701678e-01  -7.5797450193431304e-01  -7.7423660386941673e-01  -7.8878724374005005e-01  -8.0059557120090885e-01  -8.1086147739901038e-01  -8.1783648524951214e-01  -8.2138190794852084e-01  -8.2455056119440562e-01  -8.2291698227102439e-01  -8.2160754734122265e-01  -8.1981686322577818e-01  -8.1462552551524292e-01  -8.0812213000200139e-01  -7.9842844795196943e-01  -7.8815746192775249e-01  -7.7228501313783748e-01  -7.5997534483437368e-01  -7.4416377723341365e-01  -7.2564903462383035e-01  -7.0934380214670056e-01  -6.8785685587209966e-01  -6.6280853033507847e-01  -6.4422627174410263e-01  -6.1650736294094921e-01  -5.9292816358049971e-01  -5.6915524886291569e-01  -5.4320073308114181e-01  -5.1253059450022942e-01  -4.8651068821911569e-01  -4.5659227526088775e-01  -4.2890438226858402e-01  -3.9476386032237842e-01  -3.6454645229329180e-01  -3.3161753172085295e-01  -2.9855457331112489e-01  -2.6501897673456531e-01  -2.3434734100306973e-01  -2.0214470526026526e-01  -1.7052121777094040e-01  -1.3521452931815209e-01  -1.0192138791427562e-01  -6.3448770499799675e-02  -3.2359297336881039e-02  -3.0345857701014006e-01  2.4958275212814206e-02  3.3372858028200442e-01  5.0349155231589793e-01  8.5643937873524523e-01  1.2878845333804263e+00  1.4428711394468601e+00  1.6479733823444642e+00  2.1011855490960341e+00  2.6907630745485198e+00  3.0554022644484586e+00  3.3830713255561671e+00  3.7181080968826450e+00  3.9772145117940871e+00  4.1844180582310280e+00  4.0083765492581778e+00  4.3826602020540131e+00  4.6262551009960777e+00  4.9823468970868694e+00  5.3121344089528302e+00  5.4529560933393011e+00  5.6116952362586705e+00  5.7566471986196168e+00  5.8776187292487654e+00  6.0552766046615920e+00  6.1338057359160238e+00  6.3023575739546178e+00  6.4018434385303742e+00  6.4789097865622720e+00  6.5407613878097992e+00  6.5821536782368515e+00  6.7030924238956375e+00  6.7428100509653204e+00  6.8110961773529883e+00  6.8472374105013269e+00  6.8473024167692964e+00  6.8096265824323083e+00  6.7787182082141744e+00  6.7273082220604703e+00  6.5893535427324981e+00  6.4480688035729106e+00  6.2894454655791394e+00  6.1551030756072782e+00  5.9686732046960786e+00  5.8342750298642576e+00  5.6700301535707425e+00  5.5255770678959149e+00  5.2066738443848291e+00  4.9582790878147183e+00  4.6679132104050920e+00  4.3484700553971463e+00  3.9955520578138146e+00  3.4933669281662549e+00  3.0853534190622782e+00  2.7573601156212653e+00  2.4537759114825972e+00  1.8362434573594668e+00  1.3525086305384821e+00  8.8121215665320651e-01  4.9173735420556358e-01  3.6899712511976973e-01  -2.1775271962874942e-01  -9.2065620617401922e-01  -1.5324979770543168e+00  -2.2463053907399790e+00  -2.5044633691334850e+00  -3.1295798777070707e+00  -3.6727472617833263e+00  -3.8414300394325891e+00  -4.4888910052102817e+00  -4.8669208052144004e+00  -5.8336939642973968e+00  -6.7707647798218096e+00  -7.5202368857751312e+00  -8.2111783383289296e+00  -8.8090983136070697e+00  -9.3508807586347977e+00  -9.7167821990420027e+00  -1.0194631449342372e+01  -1.0432118456915497e+01  -1.0829865904307551e+01  -1.1082802210668927e+01  -1.1303182828093711e+01  -1.1725686670949584e+01  -1.2205593775950272e+01  -1.2833229839707583e+01  -1.3350847593994718e+01  -1.3585813730690145e+01  -1.3559927363802919e+01  -1.3522456036287313e+01  -1.3432767470406727e+01  -1.3429067204317276e+01  -1.3405438748072127e+01  -1.3329827944731706e+01  -1.3387638659558469e+01  -1.3402922397890343e+01  -1.3254245875425882e+01  -1.3126287162201148e+01  -1.3019415149863351e+01  -1.2823791865303731e+01  -1.2578142402240839e+01  -1.2405614875373379e+01  -1.2251081964705389e+01  -1.2020853413113841e+01  -1.1836985137672135e+01  -1.1674521465356358e+01  -1.1583632193930866e+01  -1.1466047448650013e+01  -1.1317852038604535e+01  -1.1200545345608909e+01  -1.1101838942457382e+01  -1.1031240692067145e+01  -1.0992653558544738e+01  -1.0931970328833504e+01  -1.0886382670527887e+01  -1.1014437121418840e+01  -1.1099825355389019e+01  -1.0840215720367503e+01  -1.0954058117482489e+01  -1.0881786667430196e+01  -1.0792896008755779e+01  -1.0258071882182891e+01  -1.0599931778519606e+01  -1.0725338265051597e+01  -1.0227752870612537e+01  -9.4320345676951707e+00  -9.5733967827287323e+00  -8.9485117747554010e+00  -8.3551495708979591e+00  -6.9643357793714733e+00  -6.6573507186379395e+00  -6.0379608570475769e+00  -4.9146038372886247e+00  -3.2194450265877781e+00  -2.4400969675682496e+00  -1.4971999221727241e+00  -3.3678130638985182e-01  1.0833702174396578e+00  2.2106132600705752e+00  3.3672350453438242e+00  4.5191278464305293e+00  5.6111573516663480e+00  6.9115138049153018e+00  7.8400563460519139e+00  8.6914422809313923e+00  9.3549934962608230e+00  1.0422630938382619e+01  1.1235600718107230e+01  1.1645784239477145e+01  1.2118174888680787e+01  1.2431660433314700e+01  1.2906155687032362e+01  1.3187123040323861e+01  1.3305347661617075e+01  1.3492888181942433e+01  1.3568487240676705e+01  1.3542131287591875e+01  1.3468719113433902e+01  1.3281853198504638e+01  1.3186151078494950e+01  1.2994327897558987e+01  1.2700817767539997e+01  1.2483314944735911e+01  1.2311558414174250e+01  1.2015890215157629e+01  1.1675740452619012e+01  1.1432110850698860e+01  1.1089256856291097e+01  1.0669122151295923e+01  1.0247841430441936e+01  9.6756631604217755e+00  9.3314865264562474e+00  8.9311852419603444e+00  8.4171456418964059e+00  7.8844942546695211e+00  7.3759275776145516e+00  6.8559496137381659e+00  6.3126977562083395e+00  5.9111150529407670e+00  5.7011369076213469e+00  4.9109442266240526e+00  4.3374952714350421e+00  4.0575913290551231e+00  3.8057787848222460e+00  3.3173756668024894e+00  2.9000575493158069e+00  2.3163175012646882e+00  1.6060225349799473e+00  1.0609299083572292e+00  6.3196736375930807e-01  3.4529180308213270e-01  6.2733012616595946e-02  -2.3381717601972052e-01  -7.9295839687109582e-01  -1.4150547991638958e+00  -1.5697031335094862e+00  -1.6850537391224478e+00  -2.3132548937553743e+00  -2.8554439556680662e+00  -3.1487226264512875e+00  -3.4165134369298040e+00  -3.5848305800480973e+00  -3.8997624816605634e+00  -4.3280524939459024e+00  -4.7725792623119423e+00  -5.0355094600464509e+00  -5.1730898192849279e+00  -5.5472531285941100e+00  -5.8607235172501051e+00  -6.1673549817634727e+00  -6.4280658057498723e+00  -6.2401741368794159e+00  -6.4396665124495529e+00  -6.4940659044192266e+00  -6.4769103599439131e+00  -6.6684535243050380e+00  -6.8439360963857894e+00  -6.8054907514916243e+00  -6.9181246250312913e+00  -6.9505987849528141e+00  -6.8638259294728847e+00  -6.8794942530927043e+00  -6.8263768484656957e+00  -6.8853371908730443e+00  -6.8779319095686979e+00  -6.8169741536141784e+00  -6.7420208873628686e+00  -6.6437579900884156e+00  -6.5337177742751980e+00  -6.4357033733954800e+00  -6.3022606749059467e+00  -6.1684629317764754e+00  -6.0425959061701704e+00  -5.8895384474762418e+00  -5.7268831292693241e+00  -5.5320811540157262e+00  -5.3618205863162247e+00  -5.2454098967370273e+00  -5.0445248639400102e+00  -4.8614479481063899e+00  -4.5942380162516399e+00  -4.2347380008132269e+00  -4.1532796939924745e+00  -3.8760889487201884e+00  -3.5666426463653842e+00  -3.3539372093579320e+00  -3.1351655328818691e+00  -2.7787207604381137e+00  -2.4424823212764490e+00  -2.2233424346589348e+00  -2.0630053742300483e+00  -1.7756996545882502e+00  -1.5401799433489376e+00  -1.1242537575841098e+00  -6.7354437791362809e-01  -4.8297569094907772e-01  7.8938345502559376e-02  4.5192007667124640e-01  -3.4904961470742935e-01  6.6266712645628700e-01  -7.3000708669136627e-01  -8.1192586153026247e-01  5.1132735664856099e-01  2.1048971178853740e-01  -6.2974467147893662e-02  -1.2317958266337425e+00  2.0312773437538370e-01  -1.7530366326697078e-01  2.4195442228666830e-01  1.0755975843467078e-02  -2.0972505511603785e+00  1.6616338388442866e+00  -3.4171599476155240e-01  4.2336679003369204e-01  4.1759311881325112e-01  4.6371467196366822e-01  -1.1235338314506911e-01  -2.1974725031311915e-02  2.7604730623439835e+00  2.4762141756431572e-01  -2.7244488730942262e-01  -1.6841601090399563e+00  -1.9493538517554085e-01  2.6452508244257422e-01  -2.2876702343417022e-03  2.1147976408372191e+00  1.9318666011477947e-01  -5.6804016802444768e-01  6.3423945241312374e-01  -2.1046232242901650e-01  -1.1477633824298010e+00  -4.0315752306319835e-01  4.6813286932479636e-01  4.4996372001575601e-02  -1.4399408884325522e+00  -4.2790202595849519e-01  6.1956067054860287e-02  2.6524964921806480e+00  1.0612111718883196e-01  -5.2517823630476257e-01  -1.9572603393382454e-01  1.8315090077027341e-01  1.0978543568804500e+00  -1.7163350845080969e-01  6.8919268942677150e-02  -3.0699590349960428e+00  -1.5073095838275050e+00  -1.5853579740122220e-02  5.7001206114909031e-01  9.0891288240558005e-02  8.9947062076877260e-01  4.0850632856029909e+00  -7.5923645745611695e-02  1.3639301981675725e-01  7.5354095884208194e-01  2.0920298753648954e+00  -1.8536976981820559e+00  5.5838888877973503e-01  3.4226393385457149e-01  -1.3115632695060486e-01  -8.5337986110380992e-01  -5.1438989598858254e-01  5.3036406803916425e-01  5.6791078917670927e-02  -3.3419314199405431e-01  1.5827421807541978e-01  -1.2207702489616262e-01  3.1920291458741699e+00  -1.0756407012069942e-01  -3.7830479367388978e+00  -4.0244665502329831e+00  8.3254741872250487e-02  2.2744339788204976e-01  -7.7512643637075079e-02  -2.8102187046332466e-01  -3.2738730261441087e+00  3.8668515835723200e-02  1.5498300264038578e+00  -9.6933603373221244e-01  9.4561061881477698e-02  5.9673029161985025e-01  -3.9963060156647606e-01  -6.2150733327646046e-01  2.9270281131703437e+00  -1.3567815302741115e-01  4.0494609680173754e+00  -9.7684338720625496e-01  -2.8627761461326195e+00  5.8766541419311380e-01  6.1767074679090905e+00  -5.6593911614057668e-01  -6.1917222260917504e-01  2.7968019268665589e-01  -1.9132048432434032e-02  -4.5985151358836068e-01  6.2172772122487141e-01  -4.3241762934566436e-01  1.3932729032800238e-02  -3.8002915129289144e-01  2.1661126877433170e+00  -1.3623511157434334e-01  -5.3633957914667807e-01  -3.4279106129583843e+00  -4.9306229573954652e-01  4.3422110993539809e+00  1.9165188740078251e-01  1.0419786452932411e-01  -6.3454892078765335e-01  -1.8352492873448073e-01  9.9968936639381689e-01  -2.7951727034360718e-01  2.8241707845052194e-01  -5.6691668639430405e-02  1.4362597575042768e-01  -5.3869337283696783e+00  3.3416553264637333e-01  2.2541808135401236e+00  1.2234355658906863e-01  1.0266268217102039e+00  2.2402501280761691e-01  5.0829671552733302e-01  -5.1943407373991390e-01  -1.2709395903645109e+00  1.6089253393607812e+00  -1.0916378395074711e+00  1.4191856332227806e-01  -2.3702772784600876e+00  8.3169522699010781e+00  -5.5691428826053280e-01  -4.9479277340110467e-01  -3.2620461587821642e-01  9.4008269600786498e-01  -3.8643406025833588e-01  5.6066761399144909e+00  -4.7548847175661588e-02  -4.4900624570270703e-01  3.2076218711047495e-02  1.9832084423697707e-01  1.6935515035963924e-01  -4.2036004879624822e-01  4.8159522654913450e-01  5.8098995355229377e-01  -2.5907062183707147e-01  -2.4392863586457764e-01  1.7783213969159484e+00  -1.6273024748030984e+00  1.1583337705598167e+00  -2.3752671178359144e+00  4.4653982299205569e-01  -1.4766199712448396e+00  -3.3455359456128925e-01  3.4784259116849232e+00  6.4857345676880479e-02  1.3310677698555665e-01  -1.2583273707128173e-01  -1.0268042904139392e+00  -1.8081064646194306e-01  -9.7859193873289518e-01  4.9164430057914804e-01  -7.0260377510928329e-01  -7.6668771389565968e+00  7.0824176720533349e-01  7.0837847011135824e-01  -5.5469681866467335e-01  -1.1347813496865639e-01  -1.1901864641457860e+00  -2.3076909232233095e-01  -1.0198049842302925e+00  -2.5351324022384453e-01  1.5237691487546709e-01  3.6759255742844499e-01  5.7218611296061128e-01  2.2452023966388626e-01  -4.0530735961648762e-01  -4.3824849141214417e-01  -4.0972005897050340e-01  2.6788163687692584e-01  -1.4175232440729754e-01  -5.5956699330707782e-01  1.4152638379829336e+00  5.3256645218709942e-01  -3.9193452782701993e-01  7.2253587615471432e-02  9.9224399508987631e+00  -1.9100212452342928e+00  4.1260639606805719e-02  4.5713220686313000e-01  4.2921644027864531e-01  5.8059956587191375e-01  1.8556238450094537e-01  5.0479160243031078e+00  2.3027070303237876e-01  5.2574859463094548e+00  4.8788024644540142e+00  -5.2771290102915847e-01  -3.3077716702264704e-03  1.2229056968644469e+00  7.0976423682792544e-01  3.4259737393494832e-01  -7.5162684568936644e-01  1.0112712550606758e-01  -5.0243017823470693e-01  -1.0086550740922520e+00  -2.1891775823535826e+00  7.8297707376207060e-02  1.5479104747803632e-01  3.3988520377323572e-01  1.7355816499114399e-01  6.3644623545040069e-01  7.6049248027645577e-01  -3.1762759525841877e-01  1.9751424746732119e-01  -5.1501755115197501e-02  1.6556348208946099e+00  2.1224657420016144e+00  6.7603474407318731e-01  -5.3528506308900985e-02  2.6216621513346244e-01  -1.1338418344682327e-01  2.9774097821614549e+00  -4.1057785342691561e-01  -1.6423301022816325e-01  -3.5641609696293473e+00  -4.2789140547113833e+00  -4.7855456509914998e+00  6.7737841113773356e-01  -9.7799589728606282e+00  -1.4968105933759993e-01  3.2162850997977388e-02  -5.8754842312714051e-01  7.5176213665775053e+00  -7.1678974804144080e-01  -4.5085172493495068e-01  -6.7224869980324975e-01  3.9792307402780804e-03  -7.9266533822490520e-02  -4.8840512542723186e-01  2.2529524875151014e-01  9.3493362267233732e-02  -3.6586774665817411e-02  -4.2979687404911530e-02  3.9310925810531118e-02  1.1055212945588227e+01  1.1736753248784675e-01  -1.6582933629251460e+00  1.3178483277208679e+00  3.3325486913587948e-01  -4.2340083565807679e-01  -1.6868334589053130e-01  2.3855034523437011e+00  -6.5414797539347525e-01  3.4769282241639292e+00  2.7529666531417685e-01  -5.5871005742428159e-01  4.8177594715764577e-01  -6.6374236026664524e-01  6.9016753267790987e-01  2.8912458448864492e-01  1.2369339094512466e+00  2.7730783622540423e+00  2.2696792150454095e+00  3.2674853278930677e-01  3.7608936228781120e-01  -1.8731522465671295e-03  -7.2320630026993821e-02  1.5410240049278376e-01  2.5248740106773171e-01  8.3657315659567943e-01  6.4319171454081070e-01  -6.7325232919941913e-02  -1.7346998804436614e-01  -2.2500595060155772e+00  -7.1159336968226061e-01  -6.7101074389445003e-01  -6.2235183593411070e-01  -2.4256479356831400e+00  8.1804485528927842e-02  -3.1331495840164680e-01  -5.9217997557427004e-03  -2.7492048936255018e+00  1.8167656214689807e+00  6.6286313456613222e-01  -1.2630722812905497e+00  6.2296339712005677e-01  2.6367414109573017e-01  4.0115875152166935e-01  2.9372983798455732e-01  9.1472405148459590e-01  -4.0789521869505496e-01  1.2152701346054522e-01  -5.1707085093537533e+00  -6.2805299117453817e-01  7.3344755105454986e+00  -1.0718353749243541e+01  1.4366440425151006e-01  4.2131449370318562e-02  5.06714