<?xml version="1.0"?>
<VTKFile type="UnstructuredGrid"  version="0.1"  >
<UnstructuredGrid>
<Piece  NumberOfPoints="6869" NumberOfCells="12420">
<Points>
<DataArray  type="Float64"  NumberOfComponents="3"  format="ascii">2 0 0  1.999397637392408 0.04908245704582458 0  1.997590912410345 0.09813534865483603 0  1.99458091335738 0.1471291271993349 0  1.990369453344394 0.1960342806591212 0  1.98495906919742 0.2448213503984324 0  1.978353019929562 0.2934609489107235 0  1.970555284777882 0.3419237775206024 0  1.961570560806461 0.3901806440322565 0  1.951404260077057 0.4382024803137396 0  1.940062506389088 0.4859603598065277 0  1.92755213159088 0.5334255149497967 0  1.913880671464418 0.5805693545089247 0  1.899056361186073 0.627363480797783 0  1.883088130366042 0.6737797067844401 0  1.865985597669478 0.7197900730699762 0  1.847759065022573 0.7653668647301796 0  1.828419511407061 0.8104826280099797 0  1.807978586246887 0.8551101868605642 0  1.786448602391031 0.8992226593092131 0  1.76384252869671 0.9427934736519953 0  1.740173982217423 0.9857963844595681 0  1.715457220000544 1.028205488386443 0  1.689707130499414 1.069995239774194 0  1.66293922460509 1.111140466039204 0  1.635169626303167 1.151616382835691 0  1.60641506296129 1.191398608984867 0  1.576692855253213 1.230463181161254 0  1.546020906725474 1.268786568327291 0  1.514417693012969 1.306345685907554 0  1.481902250709918 1.343117909694037 0  1.448494165902934 1.379081089474134 0  1.414213562373095 1.414213562373095 0  1.379081089474134 1.448494165902934 0  1.343117909694037 1.481902250709918 0  1.306345685907554 1.514417693012969 0  1.268786568327291 1.546020906725474 0  1.230463181161254 1.576692855253212 0  1.191398608984867 1.60641506296129 0  1.151616382835691 1.635169626303167 0  1.111140466039205 1.66293922460509 0  1.069995239774195 1.689707130499414 0  1.028205488386443 1.715457220000544 0  0.9857963844595682 1.740173982217423 0  0.9427934736519956 1.76384252869671 0  0.8992226593092132 1.786448602391031 0  0.8551101868605644 1.807978586246887 0  0.8104826280099797 1.828419511407061 0  0.7653668647301797 1.847759065022573 0  0.7197900730699766 1.865985597669478 0  0.6737797067844401 1.883088130366042 0  0.6273634807977831 1.899056361186073 0  0.5805693545089247 1.913880671464418 0  0.5334255149497968 1.92755213159088 0  0.485960359806528 1.940062506389088 0  0.4382024803137395 1.951404260077057 0  0.3901806440322567 1.961570560806461 0  0.3419237775206027 1.970555284777882 0  0.2934609489107235 1.978353019929562 0  0.2448213503984326 1.98495906919742 0  0.1960342806591215 1.990369453344394 0  0.1471291271993349 1.99458091335738 0  0.09813534865483625 1.997590912410345 0  0.04908245704582453 1.999397637392408 0  1.224646799147353e-16 2 0  -0.04908245704582428 1.999397637392408 0  -0.09813534865483602 1.997590912410345 0  -0.1471291271993347 1.99458091335738 0  -0.1960342806591213 1.990369453344394 0  -0.2448213503984323 1.98495906919742 0  -0.2934609489107233 1.978353019929562 0  -0.3419237775206025 1.970555284777882 0  -0.3901806440322564 1.961570560806461 0  -0.4382024803137393 1.951404260077057 0  -0.4859603598065277 1.940062506389088 0  -0.5334255149497966 1.92755213159088 0  -0.5805693545089243 1.913880671464418 0  -0.6273634807977828 1.899056361186073 0  -0.6737797067844399 1.883088130366042 0  -0.7197900730699763 1.865985597669478 0  -0.7653668647301795 1.847759065022573 0  -0.8104826280099795 1.828419511407061 0  -0.8551101868605637 1.807978586246887 0  -0.8992226593092134 1.78644860239103 0  -0.9427934736519954 1.76384252869671 0  -0.985796384459568 1.740173982217423 0  -1.028205488386443 1.715457220000544 0  -1.069995239774194 1.689707130499414 0  -1.111140466039204 1.662939224605091 0  -1.151616382835691 1.635169626303167 0  -1.191398608984867 1.60641506296129 0  -1.230463181161253 1.576692855253213 0  -1.268786568327291 1.546020906725474 0  -1.306345685907553 1.514417693012969 0  -1.343117909694037 1.481902250709918 0  -1.379081089474134 1.448494165902934 0  -1.414213562373095 1.414213562373095 0  -1.448494165902934 1.379081089474134 0  -1.481902250709918 1.343117909694037 0  -1.514417693012969 1.306345685907553 0  -1.546020906725474 1.268786568327291 0  -1.576692855253212 1.230463181161254 0  -1.60641506296129 1.191398608984867 0  -1.635169626303167 1.151616382835691 0  -1.662939224605091 1.111140466039204 0  -1.689707130499414 1.069995239774194 0  -1.715457220000544 1.028205488386444 0  -1.740173982217423 0.9857963844595683 0  -1.76384252869671 0.9427934736519957 0  -1.78644860239103 0.8992226593092137 0  -1.807978586246887 0.8551101868605641 0  -1.828419511407061 0.8104826280099798 0  -1.847759065022573 0.7653668647301798 0  -1.865985597669478 0.7197900730699767 0  -1.883088130366041 0.6737797067844407 0  -1.899056361186073 0.6273634807977828 0  -1.913880671464418 0.5805693545089248 0  -1.92755213159088 0.533425514949797 0  -1.940062506389088 0.4859603598065281 0  -1.951404260077057 0.4382024803137401 0  -1.961570560806461 0.3901806440322572 0  -1.970555284777882 0.3419237775206024 0  -1.978353019929562 0.2934609489107236 0  -1.98495906919742 0.2448213503984327 0  -1.990369453344394 0.1960342806591217 0  -1.99458091335738 0.1471291271993355 0  -1.997590912410345 0.09813534865483593 0  -1.999397637392408 0.04908245704582465 0  -2 2.449293598294706e-16 0  -1.999397637392408 -0.04908245704582416 0  -1.997590912410345 -0.09813534865483545 0  -1.99458091335738 -0.147129127199335 0  -1.990369453344394 -0.1960342806591212 0  -1.98495906919742 -0.2448213503984322 0  -1.978353019929562 -0.2934609489107232 0  -1.970555284777883 -0.3419237775206019 0  -1.961570560806461 -0.3901806440322567 0  -1.951404260077057 -0.4382024803137396 0  -1.940062506389088 -0.4859603598065276 0  -1.92755213159088 -0.5334255149497965 0  -1.913880671464418 -0.5805693545089242 0  -1.899056361186074 -0.6273634807977824 0  -1.883088130366042 -0.6737797067844402 0  -1.865985597669478 -0.7197900730699762 0  -1.847759065022574 -0.7653668647301793 0  -1.828419511407061 -0.8104826280099794 0  -1.807978586246887 -0.8551101868605636 0  -1.786448602391031 -0.8992226593092133 0  -1.76384252869671 -0.9427934736519953 0  -1.740173982217423 -0.9857963844595679 0  -1.715457220000544 -1.028205488386443 0  -1.689707130499414 -1.069995239774194 0  -1.662939224605091 -1.111140466039204 0  -1.635169626303167 -1.151616382835691 0  -1.60641506296129 -1.191398608984866 0  -1.576692855253213 -1.230463181161253 0  -1.546020906725474 -1.268786568327291 0  -1.51441769301297 -1.306345685907553 0  -1.481902250709918 -1.343117909694037 0  -1.448494165902934 -1.379081089474134 0  -1.414213562373095 -1.414213562373095 0  -1.379081089474134 -1.448494165902934 0  -1.343117909694037 -1.481902250709918 0  -1.306345685907554 -1.514417693012968 0  -1.268786568327292 -1.546020906725473 0  -1.230463181161255 -1.576692855253212 0  -1.191398608984866 -1.60641506296129 0  -1.15161638283569 -1.635169626303168 0  -1.111140466039204 -1.66293922460509 0  -1.069995239774195 -1.689707130499414 0  -1.028205488386444 -1.715457220000544 0  -0.9857963844595684 -1.740173982217423 0  -0.9427934736519957 -1.76384252869671 0  -0.8992226593092139 -1.78644860239103 0  -0.8551101868605649 -1.807978586246886 0  -0.8104826280099807 -1.828419511407061 0  -0.7653668647301807 -1.847759065022573 0  -0.7197900730699759 -1.865985597669478 0  -0.6737797067844399 -1.883088130366042 0  -0.6273634807977829 -1.899056361186073 0  -0.5805693545089249 -1.913880671464418 0  -0.5334255149497971 -1.92755213159088 0  -0.4859603598065282 -1.940062506389088 0  -0.4382024803137402 -1.951404260077057 0  -0.3901806440322573 -1.961570560806461 0  -0.3419237775206034 -1.970555284777882 0  -0.2934609489107246 -1.978353019929562 0  -0.2448213503984319 -1.98495906919742 0  -0.1960342806591209 -1.990369453344394 0  -0.1471291271993347 -1.99458091335738 0  -0.09813534865483606 -1.997590912410345 0  -0.04908245704582478 -1.999397637392408 0  -3.673940397442059e-16 -2 0  0.04908245704582404 -1.999397637392408 0  0.09813534865483532 -1.997590912410345 0  0.147129127199334 -1.99458091335738 0  0.1960342806591202 -1.990369453344394 0  0.2448213503984312 -1.98495906919742 0  0.2934609489107239 -1.978353019929562 0  0.3419237775206027 -1.970555284777882 0  0.3901806440322566 -1.961570560806461 0  0.4382024803137395 -1.951404260077057 0  0.4859603598065275 -1.940062506389088 0  0.5334255149497964 -1.92755213159088 0  0.5805693545089241 -1.913880671464418 0  0.6273634807977823 -1.899056361186074 0  0.6737797067844392 -1.883088130366042 0  0.7197900730699752 -1.865985597669478 0  0.76536686473018 -1.847759065022573 0  0.8104826280099801 -1.828419511407061 0  0.8551101868605643 -1.807978586246887 0  0.8992226593092132 -1.786448602391031 0  0.9427934736519952 -1.76384252869671 0  0.9857963844595677 -1.740173982217423 0  1.028205488386443 -1.715457220000544 0  1.069995239774194 -1.689707130499414 0  1.111140466039204 -1.662939224605091 0  1.15161638283569 -1.635169626303168 0  1.191398608984866 -1.606415062961291 0  1.230463181161254 -1.576692855253212 0  1.268786568327291 -1.546020906725474 0  1.306345685907554 -1.514417693012969 0  1.343117909694037 -1.481902250709918 0  1.379081089474134 -1.448494165902934 0  1.414213562373095 -1.414213562373095 0  1.448494165902933 -1.379081089474134 0  1.481902250709918 -1.343117909694037 0  1.514417693012968 -1.306345685907554 0  1.546020906725473 -1.268786568327292 0  1.576692855253212 -1.230463181161255 0  1.60641506296129 -1.191398608984866 0  1.635169626303167 -1.15161638283569 0  1.66293922460509 -1.111140466039204 0  1.689707130499414 -1.069995239774195 0  1.715457220000544 -1.028205488386444 0  1.740173982217423 -0.9857963844595685 0  1.76384252869671 -0.9427934736519958 0  1.78644860239103 -0.899222659309214 0  1.807978586246886 -0.8551101868605651 0  1.828419511407061 -0.8104826280099808 0  1.847759065022573 -0.7653668647301808 0  1.865985597669478 -0.719790073069976 0  1.883088130366042 -0.67377970678444 0  1.899056361186073 -
[...]
<PointData  Scalars="f_5766276"> 
<DataArray  type="Float64"  Name="f_5766276"  format="ascii">-3.4832906436436822e-01  -3.4807116569095597e-01  -3.4662087295705818e-01  -3.4500257095800313e-01  -3.4248237234185835e-01  -3.3836170229400597e-01  -3.3398699563704659e-01  -3.2921628245750034e-01  -3.2266265322665288e-01  -3.1705286482504819e-01  -3.1025169937863850e-01  -3.0221407726095856e-01  -2.9391643491593522e-01  -2.8539193443326011e-01  -2.7612530867589946e-01  -2.6628162354188173e-01  -2.5416363048653340e-01  -2.4365772909904707e-01  -2.2983461995869284e-01  -2.1670223147055154e-01  -2.0481643012298031e-01  -1.8957871825638914e-01  -1.7459985157569793e-01  -1.6076730723820123e-01  -1.4430013115982723e-01  -1.2703934914218101e-01  -1.0875181402950471e-01  -9.1708049154038421e-02  -7.5313752241526755e-02  -5.5438877371944230e-02  -3.5813537517128347e-02  -1.8266260745920467e-02  -1.8380219820595591e-03  1.5680804551956296e-02  3.9855776096470862e-02  6.0325996669217133e-02  7.8622494786688868e-02  1.0018946719436908e-01  1.1741025513334530e-01  1.4448689700928879e-01  1.6054191075929178e-01  1.8315308159568011e-01  2.0725458679012834e-01  2.2572060484145764e-01  2.4651418882116841e-01  2.6379601062410424e-01  2.8693905611820875e-01  3.0194578360227764e-01  3.2536828673775553e-01  3.4140686641263890e-01  3.6092135036200751e-01  3.8114583988474704e-01  3.9320807239967842e-01  4.0948199453438083e-01  4.2816521492736748e-01  4.4280769771083284e-01  4.5441679445444355e-01  4.7320371617428925e-01  4.8542166988916807e-01  5.0028229267944724e-01  5.1029296231656496e-01  5.2382149345488793e-01  5.3315728901050008e-01  5.3613244846064134e-01  5.4711618428464792e-01  5.5668828227091671e-01  5.6139755840935190e-01  5.6909322475456281e-01  5.7788117989985854e-01  5.8343974044192037e-01  5.8472863515540285e-01  5.8430642145821998e-01  5.8000659894299544e-01  5.8281424878093901e-01  5.7560331813366883e-01  5.5839768443859761e-01  5.4260831767665108e-01  5.3661819679673473e-01  5.3171857641198261e-01  5.0883278292943812e-01  4.9147896868930374e-01  4.6332692141756510e-01  4.2295328481571975e-01  4.0194360826413289e-01  3.6350907091496287e-01  3.2440399673500764e-01  3.1852555406696276e-01  2.3908521009440578e-01  2.1116266571130390e-01  1.3953672722521629e-01  1.1719068918965056e-01  7.6298598996193553e-02  3.1184949209716258e-02  -1.8634323894111383e-02  -6.3668512353077050e-02  -9.5842810580848911e-02  -6.6580281615313305e-02  -1.6269838761388353e-01  -1.9164602989439342e-01  -1.5524603793096159e-01  -6.0067545358657506e-02  -5.3955407285468625e-02  1.8193540193136690e-01  3.0592772010867120e-01  4.7929582899176387e-01  7.4140624305628577e-01  1.0434031723151145e+00  1.4039965396647676e+00  1.7982686943681583e+00  2.2897171652178665e+00  2.7447519981215867e+00  3.2176555156990738e+00  3.7905340416421356e+00  4.3377728211849895e+00  5.0347667366088773e+00  5.7213184381308269e+00  6.3388210475588798e+00  7.1918219318784997e+00  7.9378927710456937e+00  8.5177781570639954e+00  9.0837822901665302e+00  9.8646594948814101e+00  1.0368450974571152e+01  1.1021243692272749e+01  1.1461387283542068e+01  1.1624275633938721e+01  1.1887370395803234e+01  1.1824239297252550e+01  1.1753881278907171e+01  1.1380663597192306e+01  1.1046807860031405e+01  1.0385093128026234e+01  9.6783595929771220e+00  8.9356824613879873e+00  8.0391117536735468e+00  7.2352387129756792e+00  6.4069258272384317e+00  5.4000033755062908e+00  4.5083585850477803e+00  3.8077641255790913e+00  2.9164946290440175e+00  2.3215518775884414e+00  1.8230188473850870e+00  1.3318432957810873e+00  9.2126900567899539e-01  7.3622406093504533e-01  3.8269172733708118e-01  2.2153842757173386e-01  7.5744063858741217e-02  -3.0291183675413343e-02  -8.3339017923181533e-02  -9.6997254405201683e-02  -6.4143331134553991e-02  4.0420364197004026e-03  -1.1166908713363119e-01  -1.5105304351640150e-01  -1.5781603338154473e-01  -1.6627796904930062e-01  -8.3613659954360181e-02  -1.3467441404205935e-01  -5.7996548220698572e-02  -6.1125359661716528e-03  5.7328260969464952e-02  4.6709228173750512e-02  1.0316166815558625e-01  1.8040595646797900e-01  1.9141680244476378e-01  1.9953599148423953e-01  2.7662472777518132e-01  2.9745421134945327e-01  3.1950961006486395e-01  3.7451334583302925e-01  4.1965819749115713e-01  4.1791035099841156e-01  4.5658250177818888e-01  4.6970024957646889e-01  4.9333502668794288e-01  5.1108155152751156e-01  5.2922690447852216e-01  5.3084346967621987e-01  5.4356921018922066e-01  5.3782034689182556e-01  5.4243916743532006e-01  5.5229933399442721e-01  5.5821797080401181e-01  5.5105580017542555e-01  5.5042333330056015e-01  5.5165130841522203e-01  5.5181680574240000e-01  5.4740112817921194e-01  5.3449797102119845e-01  5.3183863943905452e-01  5.1782467705790680e-01  5.0629882507202773e-01  5.0620445832514793e-01  5.0099660803078183e-01  4.9247802187691514e-01  4.7483002461611568e-01  4.6204607858837765e-01  4.5060186329518687e-01  4.4148571411300247e-01  4.2975394623632929e-01  4.1526197235532275e-01  3.9943494684614844e-01  3.8615266651924857e-01  3.6937503096669549e-01  3.5386802698017167e-01  3.3639807062695976e-01  3.1554601026605478e-01  2.9718244036743663e-01  2.8151249749534951e-01  2.5774433355018322e-01  2.3959907343974002e-01  2.2104552981155887e-01  2.0278360353531211e-01  1.8256428757197102e-01  1.6111315967850093e-01  1.4194174988284686e-01  1.2167575600331923e-01  9.7289038910407480e-02  7.8009531927024867e-02  5.5460691342958363e-02  3.4400363582718314e-02  1.6545679512733110e-02  -2.5534320690965622e-03  -2.2093644590272472e-02  -4.1106810685587726e-02  -6.1808160373309898e-02  -8.0037322567976577e-02  -9.8398171955199773e-02  -1.1632988302228417e-01  -1.3343045522114014e-01  -1.4927879694039614e-01  -1.6524285033255059e-01  -1.8290028815633333e-01  -1.9469931347505212e-01  -2.1054179574593393e-01  -2.2487148887979488e-01  -2.3564219453181942e-01  -2.4675051579126861e-01  -2.6023748810094305e-01  -2.7088611201459234e-01  -2.8133760183506656e-01  -2.8984023808518983e-01  -3.0063798510360457e-01  -3.0738833675327099e-01  -3.1417472016283299e-01  -3.2200493594418350e-01  -3.2820555326305773e-01  -3.3343584886499289e-01  -3.3746746564620322e-01  -3.4138887557815528e-01  -3.4424289830258725e-01  -3.4569640180350264e-01  -3.4734138984343954e-01  -3.4808319131655929e-01  2.8483130881066243e+00  2.8638321447159130e+00  2.8629211902868148e+00  2.8499157337473395e+00  2.8311578573430145e+00  2.8056557455880906e+00  2.7832372846937896e+00  2.7443569931215941e+00  2.6785189754340268e+00  2.5864305387478104e+00  2.5178942306029413e+00  2.4419605738720387e+00  2.3614310453459626e+00  2.2718482720339139e+00  2.1631234132258554e+00  2.2007916223886346e+00  2.0396756782114109e+00  1.9319297120846515e+00  1.7744776002998306e+00  1.5983882262059386e+00  1.4827244732163654e+00  1.3434383907237977e+00  1.1842780417023175e+00  1.0954158840658759e+00  9.3535467978339981e-01  8.4007734019636171e-01  6.5527828394388832e-01  5.2065984369971796e-01  4.1859091183012470e-01  2.7971654792848166e-01  1.4418072335703894e-01  -9.9543905311609171e-02  -1.9144407477614883e-01  -4.2612849818072956e-01  -5.8718372212697090e-01  -8.1599731203972559e-01  -1.1034452583913732e+00  -1.2022347968481422e+00  -1.3109751719171339e+00  -1.6030495397472098e+00  -1.8485745818625685e+00  -2.0945680628207142e+00  -2.2544064562593418e+00  -2.3989381030462864e+00  -2.5491512936083258e+00  -2.7021790920463253e+00  -2.8049937997155974e+00  -3.0443927134093749e+00  -3.2428168453464523e+00  -3.4047355671393222e+00  -3.5534070176435875e+00  -3.7261540535858475e+00  -3.9382718364397240e+00  -4.0714004637550296e+00  -4.1710666389780666e+00  -4.2604562321894370e+00  -4.4516173292339269e+00  -4.6050160591610254e+00  -4.7081993674765208e+00  -4.7648915019220119e+00  -4.7540961636317958e+00  -4.8397900605281459e+00  -4.9219527458219847e+00  -4.9662460217827471e+00  -5.0011756690721576e+00  -4.9866772746611296e+00  -4.9960048501367735e+00  -4.9719240718711379e+00  -4.9217046344103048e+00  -4.8562535674483263e+00  -4.8167871092283692e+00  -4.7130697197143752e+00  -4.5829384324177491e+00  -4.4456348979366576e+00  -4.3142104746651322e+00  -4.1551896139081892e+00  -3.9708924492438480e+00  -3.8393930777530687e+00  -3.6273719744392245e+00  -3.4336954344551778e+00  -3.2397103651445529e+00  -3.0583688795195880e+00  -2.8118235036986157e+00  -2.5661154644626882e+00  -2.2606154862122709e+00  -1.8219530870184517e+00  -1.3893186617985687e+00  -1.0399618322604898e+00  -8.7610147923153114e-01  -6.4443736652157302e-01  -4.3446658339460065e-01  -2.3561994599811706e-01  -5.7866327462903537e-02  1.8114653619764173e-01  6.4232665625000174e-01  1.0423545778549161e+00  1.2613548704851945e+00  1.5398167255840662e+00  1.7428274966895796e+00  2.1759827826186982e+00  2.4156882025923982e+00  2.5885082547318028e+00  2.8823646715660427e+00  3.1616321030398082e+00  3.2524161646363008e+00  3.4729178545446717e+00  3.6289729998352103e+00  3.8208890808016172e+00  3.9827067318107146e+00  4.0936285140702262e+00  4.2732894973500484e+00  4.4729578591908341e+00  4.6654609776226525e+00  4.8782299459011105e+00  5.0739246788837784e+00  5.2083405625269306e+00  5.4002877143370096e+00  5.7309136314659366e+00  5.9137365248523732e+00  6.1784802630716555e+00  6.4564812299513745e+00  6.7948459738568570e+00  6.9620070912605332e+00  7.2040473820129556e+00  7.5545762198719926e+00  7.8774536691215173e+00  8.1004932728837140e+00  8.3946321820698522e+00  8.6751549693710874e+00  8.9076053337840992e+00  9.1020502271666679e+00  9.2856963407342672e+00  9.4475926568224864e+00  9.4617978274869259e+00  9.5225568419112676e+00  9.5422541493342248e+00  9.5062109224355957e+00  9.3302640949995244e+00  9.1563525122358378e+00  8.9360494311988514e+00  8.6933986688348508e+00  8.3901059789384540e+00  7.9411628771338183e+00  7.5607634532149621e+00  7.1458301730326443e+00  6.7510061761750331e+00  6.1042834586352273e+00  5.4809039168763460e+00  5.0557899612403991e+00  4.5763854265049204e+00  4.1199684646989390e+00  3.5081127068872573e+00  2.9655500742425724e+00  2.5285672841838593e+00  2.0083987967935464e+00  1.4963462196593504e+00  1.0123647020090458e+00  5.4769340258883059e-01  2.3668657978734331e-01  -2.6202814204408115e-01  -6.3264213750986054e-01  -9.1895978480021734e-01  -1.3136965435982415e+00  -1.6597052234293983e+00  -2.0516413634989834e+00  -2.1504916018073268e+00  -2.2687647528710007e+00  -2.6152948424166396e+00  -2.9042942139775372e+00  -3.1498002570313051e+00  -3.5081266343308219e+00  -3.5846306603099718e+00  -3.7579449493155423e+00  -4.0158773692623013e+00  -4.2361599059888659e+00  -4.3658587131317974e+00  -4.5015146875723664e+00  -4.6306488878970287e+00  -4.6887579807532287e+00  -4.6496259139078457e+00  -4.8934515190674208e+00  -5.0241612347936595e+00  -4.9863854972564976e+00  -4.9863588170201956e+00  -5.0535755581683617e+00  -5.0815865505615552e+00  -5.1234620169451324e+00  -5.1433982842079384e+00  -5.1051494225028797e+00  -5.0427123248686287e+00  -4.9303885792434299e+00  -4.8870066943165416e+00  -4.8461364184057354e+00  -4.8193765327675484e+00  -4.7600951694235878e+00  -4.6590642571332523e+00  -4.5896690778155644e+00  -4.4909876175956827e+00  -4.3779357498222824e+00  -4.2556715452730023e+00  -4.1317299619847292e+00  -4.0368079161634105e+00  -3.9108078077650705e+00  -3.7392541563784070e+00  -3.5307471161085737e+00  -3.3401209634272906e+00  -3.2163345042689562e+00  -3.0292389469593344e+00  -2.8618154029311023e+00  -2.6716024748001561e+00  -2.4247680315791120e+00  -2.3819988569789117e+00  -2.1796390243678889e+00  -2.0388715333717937e+00  -1.9252852619071974e+00  -1.7184861000317360e+00  -1.4989830709444780e+00  -1.4197464265963147e+00  -1.2044580660092885e+00  -1.0315446828163621e+00  -9.4471959370403513e-01  -7.8276194528462006e-01  -8.1520213195758384e-01  -4.8005844899066830e-01  -2.2422767131294782e-01  -4.6825748612337792e-02  1.5689079450063637e-01  1.4074997087608812e-01  3.2222414680096417e-01  4.3664767191586751e-01  6.6042565541814457e-01  8.4715320891101575e-01  9.8877401060863201e-01  1.1501902687954773e+00  1.3065660069247602e+00  1.4541400896817736e+00  1.5275849110463107e+00  1.5644247244842451e+00  1.6861510126933372e+00  1.7829178258585219e+00  1.9242887652708693e+00  2.0907520924791023e+00  2.0966162121717007e+00  2.2013787475839584e+00  2.3090238525053239e+00  2.3671089872076232e+00  2.4279521049972637e+00  2.5342783865552394e+00  2.6294920256676870e+00  2.6768106137285428e+00  2.7027405859893188e+00  2.7505206649331804e+00  2.7790684942843384e+00  2.8274607540788557e+00  2.8610834775555678e+00  2.8514614929676845e+00  1.9588712293045124e-01  8.4781622841974949e-02  1.6180391027674634e-01  -1.5313653102337113e-01  -5.2120025197071373e-02  -4.2400554967394044e-01  -5.7719521828882470e-01  -6.0556278327309976e-02  -9.5497863540781922e-02  5.9158697841001051e-01  8.4036303240913390e-01  1.6199094189442067e-02  1.0098230245309123e-01  -1.9625152819266270e-01  -1.5663860961244452e-01  6.5506545397200677e-01  -8.8206587183045290e-02  -8.5211780377557123e-01  -3.8849315557682111e-02  -9.6064252576524900e-01  1.5526863776025135e-01  5.4815658051262817e-02  -1.8182784279075934e-01  1.9943170393319001e-01  1.1247067916546125e-01  -1.1178131103778663e+00  2.2327239664207288e-01  1.9414470284915744e-01  -1.4445648302846468e+00  -1.0031465290125052e+00  -2.3030597985179627e-01  7.8773514689697219e-02  6.2787220568443769e-03  -2.5400496526055311e-01  1.2426068475393981e+00  -1.8461553172354542e-01  -1.6360485638294531e-01  -2.9961579875564560e-02  2.5850475269053996e-01  -4.0245203158100769e-02  -7.2375846630768608e-03  -1.2518411107203391e+00  -1.0822217655605671e-02  -1.2084618491368954e-02  2.2247904913412822e-01  -1.9680632087967487e+00  1.3879949719003648e+00  5.9434905244330949e-01  -1.6931804063530523e-02  6.0660754162738584e-01  -1.8061589334505013e+00  1.3241312503538824e-01  2.8985425226357529e-02  4.3086752537753577e-02  5.5396258891728933e-01  -6.5682524569207501e-01  -1.9877448700495858e-02  6.7112133708203042e-02  -3.4671010366399307e-01  2.3144018608131312e-01  -5.4118402071116312e-01  2.4294320556883248e-01  -2.1986816715368671e-01  3.6843937151013001e-01  -2.0296615424903164e-01  1.3280051452255992e-01  1.8448389872510002e-01  -2.9983200844451080e-01  1.6421483392764764e+00  -2.2589664291612660e-02  -2.4324894760818533e-01  1.0244903532810627e+00  -3.0209529838452598e-01  -8.8519817199397488e-01  -9.6782856123117295e-02  -2.3907379786509923e-02  2.9333597640636083e-01  9.7502717779575601e-02  2.2922601595011968e-01  -2.1372087482851549e+00  5.6620304765325757e-04  -2.2959123292810801e+00  1.9137663602942423e-01  7.0805518700300602e-03  -1.1974389693473278e-01  -2.7162280070845263e-01  -7.1079398411007494e-02  -2.2592699119439481e+00  1.0961006336222516e-01  -7.4360550866826547e-01  -1.4542767533355665e+00  1.2670495837325391e+00  1.0502668865092891e-01  3.1945239176443246e-01  -1.4673576835265648e-01  7.6785158233691087e-02  -7.0839273745511999e-01  1.4936309236828990e-01  -6.9264852566631563e-02  -4.7141259955952648e-02  -6.2694546662890982e-02  3.5539314659238885e-01  -2.4781878852603753e-01  1.3885634251234988e+00  2.8866603809759273e-01  -7.3198604786654697e-01  -1.7050911841482270e+00  3.0208455719316679e-01  4.0427310134176503e-01  -1.6311930975731442e-01  -1.6507401564877869e-01  6.1819256703453118e-01  -1.1098314152344821e-01  -7.5285830663581493e-02  1.0466030495358690e-01  -2.8612731965253901e-01  -1.7124619022713758e-01  4.1573542032916452e-02  -1.9595209171596415e+00  -6.7084615676352821e-02  -4.8649443086513222e-01  4.6481150212858036e-02  2.2002669741002157e-01  -1.4506215509807890e-01  2.6310017057763596e-01  2.2027476466327223e-01  -4.2179466625600404e-01  -9.4960538282977347e-02  -1.8272420754122956e-02  -4.5256088801790542e-03  -2.3965217276582704e+00  1.3854970039013241e+00  -3.1583994003640750e+00  -3.4441663000969236e-01  3.0252929377413507e-01  -6.1996019857510543e-01  -3.2974000236916090e-01  -1.6059849093014660e+00  -3.0750824523707219e-02  4.2381772000893264e-01  7.4279471797708649e-02  3.1050765686918791e-01  -3.0386897111161915e-01  -6.1878729444017205e-02  3.8034186755990240e-01  6.4591760924337471e-01  -1.8646492861235381e-01  5.9310374283679398e-02  -2.9629308776745704e+00  1.9792015417515390e+00  -9.6828175678446626e-01  1.0295163254604672e-01  -2.4353029691057820e-01  9.2433182340122977e-01  1.0921474545836836e+00  -2.1686594730303748e+00  2.8557689428836908e-01  3.2843825853429337e-01  9.9099720135937139e-02  -7.5961476804815431e-01  1.4827919471452633e-01  -2.7367429617778263e+00  -1.2659351138977193e+00  -1.1074968363745979e-02  -1.1901023731632034e+00  2.1950995991801805e+00  6.1321205886379855e-02  -1.9362860388013239e-01  9.3215862517011527e-02  4.2452042141464273e-02  -3.0731565917505821e-01  3.8115811413486339e-01  3.1960169650242576e-01  1.3230064100861566e-01  2.8421495203836150e-01  5.5392381130051245e-02  -1.9152998711208194e-02  2.2983073404783538e-01  -5.6010819934171778e-02  2.1649214997485424e-02  1.5450665526771371e-01  -1.7768522353564364e-01  2.5580979932553577e-01  9.2440837227619421e-01  1.0825386363141871e+00  -1.3715248754700468e-01  -1.9531965765689375e-03  2.4784991618399568e+00  4.6132307405794032e-01  -1.1544405863275273e-01  2.7756802661129450e-04  7.5929584578630707e-02  -1.7759754469702646e-01  5.2116143060103493e-01  -2.5529015322198352e+00  2.6198419659077876e-01  -1.3291901018228261e-01  -1.4341141834555113e+00  -4.7784278197394947e-01  2.1767244858070695e-01  1.8727072173875922e-01  -5.2627631976177947e-03  -1.1958835121258535e-01  2.7993804942754402e-01  1.6308158405780409e-02  3.5648236997858671e-02  -8.1175368625725053e-01  7.9222059387736576e-01  7.3766485062051426e-02  -1.3376772893239666e-01  9.5563077703838345e-02  -3.3736751570121243e-01  -2.6911347114565309e+00  -1.5850750656801746e+00  -2.8437226588088549e-01  -4.4741069606888721e-02  3.5104601680258229e-01  -1.1962848143563005e+00  -7.1218256184043760e-01  -5.0968859336822114e-01  4.5151552116891575e-01  -1.1849926341598825e-01  4.1861791915201446e-01  -1.6691981526841237e-01  -1.1514895779365379e+00  -7.7440747234156851e-02  -3.3612177750009269e+00  1.0643002215991459e+00  4.5458177278833839e-01  1.6461983862541743e-01  4.4977005132006304e-01  1.8396032023801573e-01  8.5739807937039808e-02  8.7244702416094422e-01  -5.6893215536685360e-01  -3.7042120603044004e-01  7.0354957857192091e-02  3.4273843559403383e-02  -2.8393760035473786e-01  -2.4228175853443928e-01  -2.3264789424473850e-01  1.3963864279245175e-02  5.3352423393433511e-02  9.5410768828902551e-02  -3.2724712945424678e-01  -9.5144815266951344e-02  4.0376485462523855e+00  -1.5430380046302369e-01  -2.5256781580035914e-01  -4.7208825924727182e-01  1.5889854396010802e-01  2.3437411866591944e+00  -8.6840283370798136e-03  2.0671166324555719e+00  -1.6154570033621254e+00  1.7093983461734259e+00  -3.2961616233559941e+00  -4.8015240337496899e-02  -1.1600013307817260e-01  1.4748803384493281e-01  -8.5006039136143241e-02  3.8613732129240808e-01  -1.1761425350953278e-01  1.2238708934906239e-01  5.6154527023911649e-01  1.6929553337211595e-01  -2.7727194074521139e-01  -4.1929783392340415e-02  1.1964998751988422e-01  1.4444740876618798e-03  -3.5461643721059009e-03  1.7318096975056005e-01  1.9667735365328917e-01  9.5402182473070293e-02  2.8535471970800480e-01  -9.9432387293986169e-01  1.2187834681075475e-01  -1.0855024392254195e-01  2.0804699299929150e-01  -5.2283514596832881e-01  -3.3007021128028546e-01  -2.6412734929298590e-02  -9.1519053836067538e-02  1.8948100361490217e+00  -2.0798964476469803e-01  -2.2031979922202999e-01  -2.2017784890777295e-01  2.3596978106431385e-01  -2.2349251369669151e-01  -1.8976858986781425e-01  -1.4716423136307580e-01  9.1830793547903788e-01  1.3559973512968146e-01  -2.4670801151083882e-01  -5.5503410290419175e-01  5.0795381034844889e-01  -1.4744527225859900e+00  2.5373870068908877e+00  2.0530431068235272e-01  2.2225566032619212e-01  -5.4685193238060884e-02  3.2733533316528818e-0