<?xml version="1.0"?>
<VTKFile type="UnstructuredGrid"  version="0.1"  >
<UnstructuredGrid>
<Piece  NumberOfPoints="6869" NumberOfCells="12420">
<Points>
<DataArray  type="Float64"  NumberOfComponents="3"  format="ascii">2 0 0  1.999397637392408 0.04908245704582458 0  1.997590912410345 0.09813534865483603 0  1.99458091335738 0.1471291271993349 0  1.990369453344394 0.1960342806591212 0  1.98495906919742 0.2448213503984324 0  1.978353019929562 0.2934609489107235 0  1.970555284777882 0.3419237775206024 0  1.961570560806461 0.3901806440322565 0  1.951404260077057 0.4382024803137396 0  1.940062506389088 0.4859603598065277 0  1.92755213159088 0.5334255149497967 0  1.913880671464418 0.5805693545089247 0  1.899056361186073 0.627363480797783 0  1.883088130366042 0.6737797067844401 0  1.865985597669478 0.7197900730699762 0  1.847759065022573 0.7653668647301796 0  1.828419511407061 0.8104826280099797 0  1.807978586246887 0.8551101868605642 0  1.786448602391031 0.8992226593092131 0  1.76384252869671 0.9427934736519953 0  1.740173982217423 0.9857963844595681 0  1.715457220000544 1.028205488386443 0  1.689707130499414 1.069995239774194 0  1.66293922460509 1.111140466039204 0  1.635169626303167 1.151616382835691 0  1.60641506296129 1.191398608984867 0  1.576692855253213 1.230463181161254 0  1.546020906725474 1.268786568327291 0  1.514417693012969 1.306345685907554 0  1.481902250709918 1.343117909694037 0  1.448494165902934 1.379081089474134 0  1.414213562373095 1.414213562373095 0  1.379081089474134 1.448494165902934 0  1.343117909694037 1.481902250709918 0  1.306345685907554 1.514417693012969 0  1.268786568327291 1.546020906725474 0  1.230463181161254 1.576692855253212 0  1.191398608984867 1.60641506296129 0  1.151616382835691 1.635169626303167 0  1.111140466039205 1.66293922460509 0  1.069995239774195 1.689707130499414 0  1.028205488386443 1.715457220000544 0  0.9857963844595682 1.740173982217423 0  0.9427934736519956 1.76384252869671 0  0.8992226593092132 1.786448602391031 0  0.8551101868605644 1.807978586246887 0  0.8104826280099797 1.828419511407061 0  0.7653668647301797 1.847759065022573 0  0.7197900730699766 1.865985597669478 0  0.6737797067844401 1.883088130366042 0  0.6273634807977831 1.899056361186073 0  0.5805693545089247 1.913880671464418 0  0.5334255149497968 1.92755213159088 0  0.485960359806528 1.940062506389088 0  0.4382024803137395 1.951404260077057 0  0.3901806440322567 1.961570560806461 0  0.3419237775206027 1.970555284777882 0  0.2934609489107235 1.978353019929562 0  0.2448213503984326 1.98495906919742 0  0.1960342806591215 1.990369453344394 0  0.1471291271993349 1.99458091335738 0  0.09813534865483625 1.997590912410345 0  0.04908245704582453 1.999397637392408 0  1.224646799147353e-16 2 0  -0.04908245704582428 1.999397637392408 0  -0.09813534865483602 1.997590912410345 0  -0.1471291271993347 1.99458091335738 0  -0.1960342806591213 1.990369453344394 0  -0.2448213503984323 1.98495906919742 0  -0.2934609489107233 1.978353019929562 0  -0.3419237775206025 1.970555284777882 0  -0.3901806440322564 1.961570560806461 0  -0.4382024803137393 1.951404260077057 0  -0.4859603598065277 1.940062506389088 0  -0.5334255149497966 1.92755213159088 0  -0.5805693545089243 1.913880671464418 0  -0.6273634807977828 1.899056361186073 0  -0.6737797067844399 1.883088130366042 0  -0.7197900730699763 1.865985597669478 0  -0.7653668647301795 1.847759065022573 0  -0.8104826280099795 1.828419511407061 0  -0.8551101868605637 1.807978586246887 0  -0.8992226593092134 1.78644860239103 0  -0.9427934736519954 1.76384252869671 0  -0.985796384459568 1.740173982217423 0  -1.028205488386443 1.715457220000544 0  -1.069995239774194 1.689707130499414 0  -1.111140466039204 1.662939224605091 0  -1.151616382835691 1.635169626303167 0  -1.191398608984867 1.60641506296129 0  -1.230463181161253 1.576692855253213 0  -1.268786568327291 1.546020906725474 0  -1.306345685907553 1.514417693012969 0  -1.343117909694037 1.481902250709918 0  -1.379081089474134 1.448494165902934 0  -1.414213562373095 1.414213562373095 0  -1.448494165902934 1.379081089474134 0  -1.481902250709918 1.343117909694037 0  -1.514417693012969 1.306345685907553 0  -1.546020906725474 1.268786568327291 0  -1.576692855253212 1.230463181161254 0  -1.60641506296129 1.191398608984867 0  -1.635169626303167 1.151616382835691 0  -1.662939224605091 1.111140466039204 0  -1.689707130499414 1.069995239774194 0  -1.715457220000544 1.028205488386444 0  -1.740173982217423 0.9857963844595683 0  -1.76384252869671 0.9427934736519957 0  -1.78644860239103 0.8992226593092137 0  -1.807978586246887 0.8551101868605641 0  -1.828419511407061 0.8104826280099798 0  -1.847759065022573 0.7653668647301798 0  -1.865985597669478 0.7197900730699767 0  -1.883088130366041 0.6737797067844407 0  -1.899056361186073 0.6273634807977828 0  -1.913880671464418 0.5805693545089248 0  -1.92755213159088 0.533425514949797 0  -1.940062506389088 0.4859603598065281 0  -1.951404260077057 0.4382024803137401 0  -1.961570560806461 0.3901806440322572 0  -1.970555284777882 0.3419237775206024 0  -1.978353019929562 0.2934609489107236 0  -1.98495906919742 0.2448213503984327 0  -1.990369453344394 0.1960342806591217 0  -1.99458091335738 0.1471291271993355 0  -1.997590912410345 0.09813534865483593 0  -1.999397637392408 0.04908245704582465 0  -2 2.449293598294706e-16 0  -1.999397637392408 -0.04908245704582416 0  -1.997590912410345 -0.09813534865483545 0  -1.99458091335738 -0.147129127199335 0  -1.990369453344394 -0.1960342806591212 0  -1.98495906919742 -0.2448213503984322 0  -1.978353019929562 -0.2934609489107232 0  -1.970555284777883 -0.3419237775206019 0  -1.961570560806461 -0.3901806440322567 0  -1.951404260077057 -0.4382024803137396 0  -1.940062506389088 -0.4859603598065276 0  -1.92755213159088 -0.5334255149497965 0  -1.913880671464418 -0.5805693545089242 0  -1.899056361186074 -0.6273634807977824 0  -1.883088130366042 -0.6737797067844402 0  -1.865985597669478 -0.7197900730699762 0  -1.847759065022574 -0.7653668647301793 0  -1.828419511407061 -0.8104826280099794 0  -1.807978586246887 -0.8551101868605636 0  -1.786448602391031 -0.8992226593092133 0  -1.76384252869671 -0.9427934736519953 0  -1.740173982217423 -0.9857963844595679 0  -1.715457220000544 -1.028205488386443 0  -1.689707130499414 -1.069995239774194 0  -1.662939224605091 -1.111140466039204 0  -1.635169626303167 -1.151616382835691 0  -1.60641506296129 -1.191398608984866 0  -1.576692855253213 -1.230463181161253 0  -1.546020906725474 -1.268786568327291 0  -1.51441769301297 -1.306345685907553 0  -1.481902250709918 -1.343117909694037 0  -1.448494165902934 -1.379081089474134 0  -1.414213562373095 -1.414213562373095 0  -1.379081089474134 -1.448494165902934 0  -1.343117909694037 -1.481902250709918 0  -1.306345685907554 -1.514417693012968 0  -1.268786568327292 -1.546020906725473 0  -1.230463181161255 -1.576692855253212 0  -1.191398608984866 -1.60641506296129 0  -1.15161638283569 -1.635169626303168 0  -1.111140466039204 -1.66293922460509 0  -1.069995239774195 -1.689707130499414 0  -1.028205488386444 -1.715457220000544 0  -0.9857963844595684 -1.740173982217423 0  -0.9427934736519957 -1.76384252869671 0  -0.8992226593092139 -1.78644860239103 0  -0.8551101868605649 -1.807978586246886 0  -0.8104826280099807 -1.828419511407061 0  -0.7653668647301807 -1.847759065022573 0  -0.7197900730699759 -1.865985597669478 0  -0.6737797067844399 -1.883088130366042 0  -0.6273634807977829 -1.899056361186073 0  -0.5805693545089249 -1.913880671464418 0  -0.5334255149497971 -1.92755213159088 0  -0.4859603598065282 -1.940062506389088 0  -0.4382024803137402 -1.951404260077057 0  -0.3901806440322573 -1.961570560806461 0  -0.3419237775206034 -1.970555284777882 0  -0.2934609489107246 -1.978353019929562 0  -0.2448213503984319 -1.98495906919742 0  -0.1960342806591209 -1.990369453344394 0  -0.1471291271993347 -1.99458091335738 0  -0.09813534865483606 -1.997590912410345 0  -0.04908245704582478 -1.999397637392408 0  -3.673940397442059e-16 -2 0  0.04908245704582404 -1.999397637392408 0  0.09813534865483532 -1.997590912410345 0  0.147129127199334 -1.99458091335738 0  0.1960342806591202 -1.990369453344394 0  0.2448213503984312 -1.98495906919742 0  0.2934609489107239 -1.978353019929562 0  0.3419237775206027 -1.970555284777882 0  0.3901806440322566 -1.961570560806461 0  0.4382024803137395 -1.951404260077057 0  0.4859603598065275 -1.940062506389088 0  0.5334255149497964 -1.92755213159088 0  0.5805693545089241 -1.913880671464418 0  0.6273634807977823 -1.899056361186074 0  0.6737797067844392 -1.883088130366042 0  0.7197900730699752 -1.865985597669478 0  0.76536686473018 -1.847759065022573 0  0.8104826280099801 -1.828419511407061 0  0.8551101868605643 -1.807978586246887 0  0.8992226593092132 -1.786448602391031 0  0.9427934736519952 -1.76384252869671 0  0.9857963844595677 -1.740173982217423 0  1.028205488386443 -1.715457220000544 0  1.069995239774194 -1.689707130499414 0  1.111140466039204 -1.662939224605091 0  1.15161638283569 -1.635169626303168 0  1.191398608984866 -1.606415062961291 0  1.230463181161254 -1.576692855253212 0  1.268786568327291 -1.546020906725474 0  1.306345685907554 -1.514417693012969 0  1.343117909694037 -1.481902250709918 0  1.379081089474134 -1.448494165902934 0  1.414213562373095 -1.414213562373095 0  1.448494165902933 -1.379081089474134 0  1.481902250709918 -1.343117909694037 0  1.514417693012968 -1.306345685907554 0  1.546020906725473 -1.268786568327292 0  1.576692855253212 -1.230463181161255 0  1.60641506296129 -1.191398608984866 0  1.635169626303167 -1.15161638283569 0  1.66293922460509 -1.111140466039204 0  1.689707130499414 -1.069995239774195 0  1.715457220000544 -1.028205488386444 0  1.740173982217423 -0.9857963844595685 0  1.76384252869671 -0.9427934736519958 0  1.78644860239103 -0.899222659309214 0  1.807978586246886 -0.8551101868605651 0  1.828419511407061 -0.8104826280099808 0  1.847759065022573 -0.7653668647301808 0  1.865985597669478 -0.719790073069976 0  1.883088130366042 -0.67377970678444 0  1.899056361186073 -
[...]
<PointData  Scalars="f_5766246"> 
<DataArray  type="Float64"  Name="f_5766246"  format="ascii">1.0043143191312021e+00  1.0776061657639451e+00  1.1468738937437952e+00  1.2171372008751811e+00  1.2938417545202583e+00  1.3606215558638464e+00  1.4335636106084488e+00  1.4997078971546964e+00  1.5758403689745624e+00  1.6405842297616240e+00  1.7099424638396519e+00  1.7804025579984071e+00  1.8444895845659686e+00  1.9149143010881782e+00  1.9746836748231000e+00  2.0482596419141621e+00  2.1104113363229149e+00  2.1739258817673002e+00  2.2460777637166558e+00  2.3066168037329167e+00  2.3622380132697987e+00  2.4296487155591087e+00  2.4846901161719304e+00  2.5515682105939059e+00  2.6026813224739564e+00  2.6644919310342914e+00  2.7208725320533711e+00  2.7763956608428146e+00  2.8284939965002880e+00  2.8811324261072238e+00  2.9308668289877073e+00  2.9749541727380162e+00  3.0272094755131542e+00  3.0592387947470372e+00  3.1153252288484858e+00  3.1518032790979835e+00  3.1895122281469441e+00  3.2308873897144061e+00  3.2636189149212198e+00  3.2958014096720909e+00  3.3216271217794908e+00  3.3534627309702905e+00  3.3738219397433933e+00  3.4064528045525395e+00  3.4240714448884821e+00  3.4503113179792750e+00  3.4645601864211186e+00  3.4825491591972213e+00  3.4968986803615212e+00  3.5183201613931714e+00  3.5372402877339630e+00  3.5464767369486845e+00  3.5583268909152261e+00  3.5769700218124663e+00  3.5822181690063921e+00  3.5777313353818396e+00  3.6080363238273789e+00  3.5938619223460959e+00  3.6279687655606643e+00  3.6186225744723779e+00  3.6514005636101410e+00  3.6465363751550397e+00  3.6463017842260506e+00  3.6599135623348147e+00  3.6951823713796266e+00  3.6678154877250586e+00  3.7172157247745359e+00  3.6941754700044021e+00  3.7507850261078648e+00  3.7412278378216728e+00  3.7691760942169039e+00  3.7737377083393193e+00  3.8213495037115148e+00  3.8439565291276048e+00  3.8931509539933429e+00  3.9127320857041079e+00  3.9647165629707515e+00  4.0252604642662968e+00  4.0641022697611753e+00  4.1229622137639703e+00  4.1684243892422455e+00  4.2566936280005079e+00  4.3681875972549937e+00  4.4293356406859381e+00  4.6089787306220362e+00  4.7538692491271011e+00  4.8592042599626977e+00  5.0909410226028662e+00  5.1716774568958606e+00  5.4609305371672079e+00  5.7001734214241386e+00  5.8755191801713389e+00  6.2028508942279776e+00  6.5966784019255522e+00  6.9022504930918060e+00  7.5336806195336132e+00  7.8272195062673440e+00  8.2726949284741398e+00  8.7394862266066475e+00  9.4663742085417031e+00  9.9243167605786979e+00  1.0892243265526728e+01  1.1865258137265716e+01  1.3121009916387518e+01  1.4529683918239300e+01  1.5406186536719895e+01  1.6682775592272080e+01  1.8927986481408428e+01  2.0922101358502477e+01  2.3339160025209470e+01  2.5137850161800213e+01  2.6675114546554227e+01  2.7988741923464087e+01  2.9184856155018586e+01  3.0344639594929706e+01  3.1261187918997987e+01  3.1949380828578942e+01  3.2324847532341749e+01  3.2155648546803071e+01  3.1662866205946397e+01  3.1051751693297970e+01  2.9588662361343733e+01  2.8084441469500991e+01  2.6018169793530461e+01  2.3592999693635097e+01  2.1218134720455794e+01  1.8009227148092926e+01  1.4644252926037169e+01  1.1358659567064159e+01  7.6141588026400582e+00  4.5512821594666661e+00  1.0448112123333348e+00  -1.9688105952776940e+00  -4.7833720869180336e+00  -7.6575478232467180e+00  -9.6835250960231676e+00  -1.1289249189682105e+01  -1.2957718068174534e+01  -1.4234713186952726e+01  -1.4836260634650648e+01  -1.5709209353362050e+01  -1.5902386324280812e+01  -1.5752862752347925e+01  -1.5755009409022486e+01  -1.5585459479083930e+01  -1.5227784569523257e+01  -1.4777724507208982e+01  -1.4135921339067291e+01  -1.3534964028212109e+01  -1.3019769496647035e+01  -1.2336219608047625e+01  -1.1629115873438183e+01  -1.1170011571604729e+01  -1.0614572442694193e+01  -9.7029625621542248e+00  -8.5541529936514760e+00  -8.0650372520735427e+00  -7.2516719646824548e+00  -6.6349808513134096e+00  -6.2041571485353399e+00  -5.6620921749516606e+00  -5.2267041910234919e+00  -4.7147271588662933e+00  -4.5353031528812648e+00  -4.1047992469451744e+00  -3.7307173813202574e+00  -3.6044906357611977e+00  -3.3755907606205473e+00  -3.0568186233144856e+00  -2.8816160624564655e+00  -2.7311593196667920e+00  -2.5623465463499717e+00  -2.3446726858940035e+00  -2.3058740003822180e+00  -2.1559839481366754e+00  -2.0966266606814039e+00  -1.9825410877952747e+00  -1.9073380283428583e+00  -1.8390483349873603e+00  -1.8472225319331554e+00  -1.7831798929220253e+00  -1.7894799890357382e+00  -1.7373257926573760e+00  -1.6584510007557880e+00  -1.6788593923380664e+00  -1.6598826682019552e+00  -1.6283094026694729e+00  -1.6014556172190904e+00  -1.5743042744432711e+00  -1.5908223799414856e+00  -1.6055503671814901e+00  -1.5598678195468487e+00  -1.6004817594616598e+00  -1.5637401289069475e+00  -1.5384956549803461e+00  -1.5510353271616353e+00  -1.5237406169421506e+00  -1.5545364345411048e+00  -1.5300868325051733e+00  -1.5209697491293770e+00  -1.5078852303040042e+00  -1.5036668384865970e+00  -1.4980771878992478e+00  -1.4942721681209692e+00  -1.4765872302554264e+00  -1.4735177212881103e+00  -1.4538060595082953e+00  -1.4584560614876472e+00  -1.4462482051824390e+00  -1.4170053261084850e+00  -1.4020364700621455e+00  -1.3960878310624401e+00  -1.3736287571199628e+00  -1.3522803118337472e+00  -1.3246958912507201e+00  -1.3040420249783007e+00  -1.2789990066212649e+00  -1.2501186912786950e+00  -1.2186466522176480e+00  -1.1914498754183653e+00  -1.1487898252775917e+00  -1.1203399299668597e+00  -1.0720739761413802e+00  -1.0392575898253300e+00  -9.9405665852866798e-01  -9.5305628121400532e-01  -9.0464972899694140e-01  -8.5803673426965332e-01  -8.0621697823863414e-01  -7.5424730860167732e-01  -7.0688503624402288e-01  -6.4859463544678231e-01  -5.9734722643396654e-01  -5.3707646803141185e-01  -4.7684368253216303e-01  -4.1846068193134922e-01  -3.5827402976041728e-01  -2.9391770364219794e-01  -2.3201297357917502e-01  -1.7453730723214506e-01  -1.0286992192221560e-01  -3.9056469747924677e-02  2.6185387063444414e-02  9.4190399779563561e-02  1.6086581393669969e-01  2.3455626037607941e-01  3.0185572262460991e-01  3.7203657867329026e-01  4.4233777661216384e-01  5.1139309834695590e-01  5.7845124299580686e-01  6.4927493777813539e-01  7.2034135790452680e-01  7.8969171537137073e-01  8.6833068956556014e-01  9.3717929821510981e-01  3.7396460000818270e+00  4.1940502686843928e+00  4.6699960851558968e+00  4.9106835008140379e+00  5.2142655748391658e+00  5.7960925001376289e+00  5.9010548251880444e+00  6.1156616580270775e+00  6.6477333199809658e+00  7.4333908399884958e+00  7.8696789806896366e+00  8.2790763007297112e+00  8.7718992822935409e+00  9.0806930439065319e+00  9.6356014487341675e+00  9.0398519738881244e+00  9.4505527051630054e+00  9.7291253923738630e+00  1.0308022512152867e+01  1.0716932977330574e+01  1.0867781218453706e+01  1.1024680827296470e+01  1.1320539327144550e+01  1.1304179109450162e+01  1.1620783070830022e+01  1.1767724163336748e+01  1.1893794484506717e+01  1.1963726593652426e+01  1.1957475074495880e+01  1.2069002551878548e+01  1.2290718910822054e+01  1.2602169661672736e+01  1.2448584540285783e+01  1.2418108125342762e+01  1.2219691031547118e+01  1.2460947855817816e+01  1.2596200141373703e+01  1.2377162809824716e+01  1.1959795600821513e+01  1.2106962807172010e+01  1.1978147300385949e+01  1.2000137076051752e+01  1.1496424958838395e+01  1.1262669808626212e+01  1.0987024929418862e+01  1.0603686163306710e+01  1.0256027196259661e+01  1.0094194557463226e+01  9.6766712965633914e+00  9.2565718464139142e+00  8.7358912708403498e+00  8.2819167259909960e+00  7.7349453601122926e+00  7.2360861508377621e+00  6.4822019696246738e+00  5.9511200007795457e+00  5.4018429163063590e+00  4.6714399915736999e+00  3.9567918945797689e+00  3.2472499751006381e+00  2.7517817628660932e+00  2.0979310058979994e+00  1.1346525178804678e+00  3.3280654389242253e-01  -6.3366725874251006e-01  -1.3781509558298271e+00  -2.2357890410266510e+00  -3.0804081864058284e+00  -3.7150293102114635e+00  -4.4913015299218646e+00  -5.3563010158535471e+00  -6.4447374680690634e+00  -7.7800242844468501e+00  -9.0565511065095752e+00  -1.0220922336956733e+01  -1.1056048667736730e+01  -1.2146361807607960e+01  -1.2938934468270149e+01  -1.3535388947964366e+01  -1.4115499568669341e+01  -1.4800801192854179e+01  -1.5372637212212673e+01  -1.5926116983030273e+01  -1.6838269051214631e+01  -1.7910344443027800e+01  -1.9168273372878918e+01  -2.0271564439956705e+01  -2.0857560430445371e+01  -2.1243180682906580e+01  -2.1208948766042472e+01  -2.1279023017895639e+01  -2.1619492156811678e+01  -2.1687951003092724e+01  -2.1687987129635673e+01  -2.2405271243140810e+01  -2.2833793346143000e+01  -2.2996911286551658e+01  -2.3057431184802049e+01  -2.3279744089049853e+01  -2.3067250252779676e+01  -2.3135695639905752e+01  -2.3108620244183076e+01  -2.2783573796880766e+01  -2.2235446759228996e+01  -2.2062828805848124e+01  -2.1791437093417212e+01  -2.1282959833319595e+01  -2.0723070677378210e+01  -2.0018804861392336e+01  -1.9535771627650895e+01  -1.9132999870429767e+01  -1.8452334602089127e+01  -1.7853515496545384e+01  -1.7041243413554277e+01  -1.6302047790690796e+01  -1.5682545510227190e+01  -1.5046455512613305e+01  -1.3635672683752063e+01  -1.2879969294267335e+01  -1.1919778521920836e+01  -1.1041424024919017e+01  -9.2349051573386891e+00  -9.0141683933129872e+00  -8.4787691512865084e+00  -6.6845854018447213e+00  -4.6792798318392723e+00  -4.1468599923180065e+00  -2.5390444478029188e+00  -1.2353408073752341e+00  1.6227506787974784e+00  2.5426488217887369e+00  3.8160641849994184e+00  5.5121619068027572e+00  8.9477008630639663e+00  1.0374688675252687e+01  1.2114648044997642e+01  1.3884056443510353e+01  1.6518402392679093e+01  1.8455341535494046e+01  2.0320255320643021e+01  2.2093128896531422e+01  2.3953887115128641e+01  2.6059600522209085e+01  2.7629295677623290e+01  2.9029615721969883e+01  3.0233178988514414e+01  3.2156713394684850e+01  3.3604157862016280e+01  3.4191089517612262e+01  3.5021395754695334e+01  3.5772323739427996e+01  3.6570390707694457e+01  3.7091993874352553e+01  3.7377836633818838e+01  3.7714623443827577e+01  3.7828010455099523e+01  3.8010462713076308e+01  3.7914846250998814e+01  3.7610228236111048e+01  3.7536295267113758e+01  3.7208359802404985e+01  3.6992419913884490e+01  3.6377234068457668e+01  3.5966116128970683e+01  3.5296929647488639e+01  3.4322226695321781e+01  3.3477767530397237e+01  3.3076875839957083e+01  3.2323345731053195e+01  3.1658600803150460e+01  3.0924160926879093e+01  2.9910511200768944e+01  2.8906251266125668e+01  2.8211649605054834e+01  2.7303503814967122e+01  2.6473977084992921e+01  2.5388282380917996e+01  2.4585747242898890e+01  2.3486118049546011e+01  2.2552088800050242e+01  2.1958856770527227e+01  2.0985326262796715e+01  2.0103122421961942e+01  1.9139878064485142e+01  1.8330592836998253e+01  1.7491662697627504e+01  1.6709505033793615e+01  1.5640472241718681e+01  1.4659939119835490e+01  1.3713113490943007e+01  1.3036913067734863e+01  1.2278699927296243e+01  1.1461802579120585e+01  1.0696001689613944e+01  9.8661306247732714e+00  9.2993108743525745e+00  8.6249803679040937e+00  7.8671036842040962e+00  7.0021079754603006e+00  6.3202341158649942e+00  5.6821666242262863e+00  5.1828862293003448e+00  4.6468527812320986e+00  3.9850028346000910e+00  3.2058265284237102e+00  2.5610647766317696e+00  1.8617364024306104e+00  1.3121791696797784e+00  7.9873001518761277e-01  2.6661549028446485e-01  -2.0896902542250132e-02  -3.3033827048027209e-01  -5.3926888404929574e-01  -4.9340275844412351e-01  -6.9997742269746199e-01  -1.3133808621195660e+00  -1.5903900380433258e+00  -1.7924301084626910e+00  -2.0019682027917227e+00  -2.0215727590913382e+00  -2.1135098156652297e+00  -2.3333724338399131e+00  -2.3792696293745967e+00  -2.3447961552186904e+00  -2.5795614435568832e+00  -2.7499504478432648e+00  -2.6385457528775231e+00  -2.7695451993927773e+00  -2.5383293990178464e+00  -2.5504248735486001e+00  -2.5110045532331169e+00  -2.4486584029738849e+00  -2.4166503448897774e+00  -2.2738962585728983e+00  -2.1431312287256916e+00  -1.8980933561689388e+00  -1.8028239257822984e+00  -1.7042219394133207e+00  -1.4853801627018635e+00  -1.2356349967859819e+00  -1.0633696019756398e+00  -5.5213290397983750e-01  -7.4891778929148378e-01  -4.2998457743680207e-01  8.0914094519552032e-02  2.7349340695154062e-01  5.5167980992178423e-01  8.2256349849153143e-01  1.2480698270457002e+00  1.4913705808760314e+00  1.6810824178965378e+00  2.0721217193221544e+00  2.3315919644298915e+00  2.7956648507098976e+00  3.4134661165782232e+00  3.5269376871708502e+00  1.0472508766477291e+00  6.4482610693948794e-01  1.3551620438400562e+00  9.1777956150737375e-02  1.8378076287519414e+00  3.1070805725296879e+00  -1.2307152601401923e+00  1.6258465125977957e+00  4.3188627757653325e-01  6.9873874167522498e-01  1.7729051282154660e+00  -6.1083634611851112e-01  2.5260598390416242e+00  8.9533403284208823e-01  6.1403142500820096e-01  3.0298694614807502e+00  -2.5823815902625158e-01  -2.1689625097629497e+00  2.2522501881263093e+00  6.8613456343150396e+00  3.1108558044727483e+00  -1.4032059270560324e+00  3.6575833500112895e+00  2.9765147918673520e+00  -1.1114753356087377e+00  2.3682526191509861e+00  1.1851608703474033e+00  9.5869019616841555e-01  -3.4553501606754145e+00  1.1082401177695617e+01  1.4007577743297137e+00  1.5282278820341648e+00  5.4305297620986182e-01  4.5566890753162581e-01  1.4110790480688917e+00  -6.9242087506769218e-02  2.1200353932904346e+00  -2.3804404000606132e+00  6.5234158815376553e-01  4.0778469945981533e+00  3.3494821711470990e-01  2.7378429870653367e+00  1.2411509339603544e+00  -7.1971837450586429e-01  3.5641012917847115e+00  6.5595548323107824e+00  3.6819400089866190e+00  1.1757700969225560e+00  7.9879808670068364e-01  -1.0714267530567420e-01  -6.6565127459894411e+00  -1.8798888761935348e+00  2.7242979829667626e+00  1.6814885170533560e+00  1.9347056995902709e+00  1.6131183677901973e+01  -1.6823385299223304e-01  2.1066716470731564e+00  -2.3372184068168389e-01  3.0629162631548410e+00  1.3229785329642509e+00  1.1204332333545381e+00  1.7770526318308082e+00  1.0434121799583924e+00  2.1757985563796955e+00  -1.1176497953497870e+00  3.1005313641777743e+00  1.1023086558395321e+00  2.5731153495086474e+00  -4.3202087957754953e-01  -4.0727765397665587e+00  5.9005047211337844e+00  7.4417540408636462e-01  1.0608700736249126e-02  -6.1301298178646813e-01  1.0172300324164827e+00  3.2912306673840392e+00  2.3391439367525555e+00  -1.4220117039177207e+00  -1.0010823526995940e+01  -9.7364469733162884e-01  5.3969025263895853e-01  9.8206228710469057e-01  -2.9108006768424701e+00  2.4534869320154300e+00  5.6108205218405649e+00  -6.4457719436842209e-01  1.2048155633187640e+01  2.7281729123302814e+00  5.6692534679996927e+00  3.9470745901988296e+00  2.9241506902029185e-01  2.9490123639140244e+00  2.1328201444931643e+01  -4.0944485535551661e-01  -1.0134114267046010e+00  -2.0936748282710989e+00  1.2040899663191258e+00  4.6773494567983978e+00  2.6368146656373415e+00  2.9833002251319551e+00  3.5586286632797979e+00  1.1779807882345454e-01  5.0227753860128512e+00  -1.6923017633093607e+00  4.3044504147196117e+00  1.1393946898629215e+00  1.0075492271425146e+00  7.2294298125907472e+00  -1.3780209657825231e+00  1.1513715286154116e+00  9.8394194055754669e-01  1.4002883714771716e-01  8.1392229906064828e-01  1.6632834077958585e+00  1.6156570311393008e+00  6.6464388129255236e-01  6.2242917969636546e-01  -1.3705471897616789e+01  1.9822892397598921e+00  2.3492939256432321e+00  1.9068663420074818e+00  1.4803276813522064e+00  1.5254317044260004e+00  3.2807297332538119e+00  -1.2982948132174725e+00  1.9317215116156921e+00  1.7670409118417305e+00  1.2932633795556592e+00  -7.7533357296748318e-02  3.1610698832932509e+00  2.6589896351179771e+01  -2.9336759814249933e+00  -6.1696120572237314e+00  3.8230428585416862e+00  9.6299025961553113e+00  6.3858599865725889e+00  1.7729553827672557e+01  4.0109379385299695e-02  9.9277203785329649e-01  1.4056447780839822e+00  1.0882921775091885e+00  1.3586293648134089e+00  3.6065187861723085e+00  1.2816552997927713e+00  1.7845762737336763e+00  2.0201309166144657e-01  -8.6792935056951903e-01  9.9593094076417987e+00  1.8252782427433554e+00  8.6808434993311465e+00  2.2047973020119016e-01  1.9963305174087425e+00  8.0986264857306145e-01  1.7257813705784428e+00  4.0964163544996506e+00  -2.0613584191446401e+00  3.4293119498293034e+00  2.4940440108970181e+00  2.9628064067246043e+00  1.3876906914077696e+00  5.3602936655143401e+00  -2.1998250845016916e+00  -8.5826044923631450e-01  -1.6966696681589976e+01  4.2020136050885526e+00  3.0027869540271594e+00  -2.7752509355113159e-01  2.0898040300809781e+00  1.0994565001820269e+00  5.0072275573738634e-01  7.8720187691318322e-01  -1.5722770859183515e+00  9.1958725206591840e-01  3.2690012839996663e+00  6.4672947742484743e-01  -1.4052586411694717e-01  -1.3519483362222910e+00  -4.9619830395222692e-01  -7.4523398573136068e-01  2.8057612046294356e+00  4.4696987816476658e-01  4.1938577555252010e+00  3.2121580006767285e+00  2.4850513878069083e+00  -1.8109099479112947e-01  6.6508925554096809e-01  3.0355800520315668e+01  3.7938769680045425e-01  -4.5841222319332635e+00  2.4433233308566051e+00  2.6463621086753282e+00  2.3392588069871474e+00  1.2787251729490656e+00  1.6205720396376023e+01  -2.3750668613486883e+00  8.2036135538916497e+00  6.6841035034204461e+00  4.3784681244392907e+00  1.0989428143882896e+00  1.7299399482782429e+00  2.8717760323802750e+00  1.8810954570916545e+00  9.5523658957823099e-01  1.3681546878496949e+00  1.8732063705196462e+00  -8.5985871549782349e+00  3.2701170108421007e-01  1.0996051907446254e+00  1.3196583742479542e+00  6.6041002704068119e-01  -1.9483044860289040e+00  -9.9415764627031722e-01  7.4122900400079281e+00  2.9746518786601311e-01  -5.7642665792945458e-01  -1.7969262529362715e+00  6.1053458653022563e-01  1.7760752474464696e+00  -6.7676260397951793e-01  1.1001157221429800e+00  -8.5854598622993850e-01  3.7034614118295832e+00  1.4933727835835226e+01  4.6906882366832585e+00  2.9090995088000091e-02  -8.1211741985800732e+00  -7.2742699216113915e-01  -1.1658831490220745e+00  3.1922447643549456e+00  -1.9145335876589662e+01  3.3422779572097259e+00  2.1172777456882379e+00  1.2566013184062046e+00  2.2426787840352912e+01  -7.5842796198094593e+00  -9.2906465136040672e-01  -9.4258612992844804e-01  -2.6743496864046783e+00  7.2305274291911692e-01  -9.7168973589407973e-02  1.7940984329608561e-01  9.3944922321469648e-01  -1.6502598075229666e+00  9.0797381857842585e-01  8.6917351251295605e-01  3.2668911554529686e+01  -1.7695921017488265e+00  1.0920260249508618e+00  1.1050591593020988e+01  -3.0619406908896076e+00  3.3182825452955811e+00  -4.1541784019175082e-01  6.2164537121690158e+00  -4.8823248627221272e+00  7.1804884519039165e+00  7.8921305239162614e+00  2.2596601459844941e+00  2.2270856851850129e+00  -1.1769814092231201e+00  2.6874110058221312e+00  3.5059023193962542e+00  1.1298435008070522e+00  4.1728368226685388e+00  3.8530318214329511e+00  8.8272404869522725e-01  1.8224391106468198e+00  3.7696039919836311e-01  1.4011975927385762e+00  1.6490520315078874e+00  1.9685052683168844e+00  1.1597629611152509e+00  1.0680496455833488e+00  1.7574457578361948e+00  1.0984205957009030e+00  1.4858564885366214e+00  4.8109550973402433e+00  -6.1284474319790161e-01  -1.2779757180399818e+00  6.8390145675612646e-01  1.1760585398635002e+00  -4.7215335546263909e-01  6.3311738110415317e-01  7.7684789822820399e-01  1.9307092581407339e+00  -1.0783701326192131e-01  1.5538241238902999e+00  3.3002522972605717e+00  1.5828332302898200e+00  1.9387234078354563e+00  1.7112278282673830e+00  2.6032309203086421e+00  -1.1263220361600152e+00  1.2220526757191628e+00  -1.2596296251999257e+00  9.6004940531671101e-01  2.1336272689427609e+01  -1.8957508335725521e+01  3.0193073061419509e+00  3.1574302847185916e+00  1.3747963436031219e-01  -1.4811345770913329e+00  -3.4212716414926980e-01  3.4522167509683372e+00  2.6793889854580515e+00  2.8302641