<?xml version="1.0"?>
<VTKFile type="UnstructuredGrid"  version="0.1"  >
<UnstructuredGrid>
<Piece  NumberOfPoints="2401" NumberOfCells="4608">
<Points>
<DataArray  type="Float64"  NumberOfComponents="3"  format="ascii">0 0 0  0.001070538380698371 0 0  0.004277569313095364 0 0  0.009607359798386061 0 0  0.01703708685546806 0 0  0.02653493525245065 0 0  0.03806023374436157 0 0  0.05156362923366253 0 0  0.06698729810778931 0 0  0.08426519384873815 0 0  0.1033233298543955 0 0  0.1240800962605269 0 0  0.1464466094067445 0 0  0.1703270924499866 0 0  0.1956192854956637 0 0  0.2222148834902257 0 0  0.2500000000000299 0 0  0.2788556548905322 0 0  0.308658283817491 0 0  0.339280267348458 0 0  0.3705904774487813 0 0  0.4024548389919803 0 0  0.4347369038900211 0 0  0.467298435384978 0 0  0.5000000000000517 0 0  0.5327015646151253 0 0  0.5652630961100813 0 0  0.5975451610081212 0 0  0.6294095225513188 0 0  0.6607197326516399 0 0  0.6913417161826045 0 0  0.7211443451095605 0 0  0.7500000000000597 0 0  0.7777851165098603 0 0  0.8043807145044185 0 0  0.829672907550091 0 0  0.8535533905933287 0 0  0.8759199037395413 0 0  0.8966766701456674 0 0  0.9157348061513193 0 0  0.9330127018922625 0 0  0.9484363707663832 0 0  0.961939766255678 0 0  0.9734650647475827 0 0  0.9829629131445586 0 0  0.9903926402016341 0 0  0.9957224306869181 0 0  0.9989294616193084 0 0  1 0 0  0 0.02083333333333333 0  0.001070538380698371 0.02083333333333333 0  0.004277569313095364 0.02083333333333333 0  0.009607359798386061 0.02083333333333333 0  0.01703708685546806 0.02083333333333333 0  0.02653493525245065 0.02083333333333333 0  0.03806023374436157 0.02083333333333333 0  0.05156362923366253 0.02083333333333333 0  0.06698729810778931 0.02083333333333333 0  0.08426519384873815 0.02083333333333333 0  0.1033233298543955 0.02083333333333333 0  0.1240800962605269 0.02083333333333333 0  0.1464466094067445 0.02083333333333333 0  0.1703270924499866 0.02083333333333333 0  0.1956192854956637 0.02083333333333333 0  0.2222148834902257 0.02083333333333333 0  0.2500000000000299 0.02083333333333333 0  0.2788556548905322 0.02083333333333333 0  0.308658283817491 0.02083333333333333 0  0.339280267348458 0.02083333333333333 0  0.3705904774487813 0.02083333333333333 0  0.4024548389919803 0.02083333333333333 0  0.4347369038900211 0.02083333333333333 0  0.467298435384978 0.02083333333333333 0  0.5000000000000517 0.02083333333333333 0  0.5327015646151253 0.02083333333333333 0  0.5652630961100813 0.02083333333333333 0  0.5975451610081212 0.02083333333333333 0  0.6294095225513188 0.02083333333333333 0  0.6607197326516399 0.02083333333333333 0  0.6913417161826045 0.02083333333333333 0  0.7211443451095605 0.02083333333333333 0  0.7500000000000597 0.02083333333333333 0  0.7777851165098603 0.02083333333333333 0  0.8043807145044185 0.02083333333333333 0  0.829672907550091 0.02083333333333333 0  0.8535533905933287 0.02083333333333333 0  0.8759199037395413 0.02083333333333333 0  0.8966766701456674 0.02083333333333333 0  0.9157348061513193 0.02083333333333333 0  0.9330127018922625 0.02083333333333333 0  0.9484363707663832 0.02083333333333333 0  0.961939766255678 0.02083333333333333 0  0.9734650647475827 0.02083333333333333 0  0.9829629131445586 0.02083333333333333 0  0.9903926402016341 0.02083333333333333 0  0.9957224306869181 0.02083333333333333 0  0.9989294616193084 0.02083333333333333 0  1 0.02083333333333333 0  0 0.04166666666666666 0  0.001070538380698371 0.04166666666666666 0  0.004277569313095364 0.04166666666666666 0  0.009607359798386061 0.04166666666666666 0  0.01703708685546806 0.04166666666666666 0  0.02653493525245065 0.04166666666666666 0  0.03806023374436157 0.04166666666666666 0  0.05156362923366253 0.04166666666666666 0  0.06698729810778931 0.04166666666666666 0  0.08426519384873815 0.04166666666666666 0  0.1033233298543955 0.04166666666666666 0  0.1240800962605269 0.04166666666666666 0  0.1464466094067445 0.04166666666666666 0  0.1703270924499866 0.04166666666666666 0  0.1956192854956637 0.04166666666666666 0  0.2222148834902257 0.04166666666666666 0  0.2500000000000299 0.04166666666666666 0  0.2788556548905322 0.04166666666666666 0  0.308658283817491 0.04166666666666666 0  0.339280267348458 0.04166666666666666 0  0.3705904774487813 0.04166666666666666 0  0.4024548389919803 0.04166666666666666 0  0.4347369038900211 0.04166666666666666 0  0.467298435384978 0.04166666666666666 0  0.5000000000000517 0.04166666666666666 0  0.5327015646151253 0.04166666666666666 0  0.5652630961100813 0.04166666666666666 0  0.5975451610081212 0.04166666666666666 0  0.6294095225513188 0.04166666666666666 0  0.6607197326516399 0.04166666666666666 0  0.6913417161826045 0.04166666666666666 0  0.7211443451095605 0.04166666666666666 0  0.7500000000000597 0.04166666666666666 0  0.7777851165098603 0.04166666666666666 0  0.8043807145044185 0.04166666666666666 0  0.829672907550091 0.04166666666666666 0  0.8535533905933287 0.04166666666666666 0  0.8759199037395413 0.04166666666666666 0  0.8966766701456674 0.04166666666666666 0  0.9157348061513193 0.04166666666666666 0  0.9330127018922625 0.04166666666666666 0  0.9484363707663832 0.04166666666666666 0  0.961939766255678 0.04166666666666666 0  0.9734650647475827 0.04166666666666666 0  0.9829629131445586 0.04166666666666666 0  0.9903926402016341 0.04166666666666666 0  0.9957224306869181 0.04166666666666666 0  0.9989294616193084 0.04166666666666666 0  1 0.04166666666666666 0  0 0.0625 0  0.001070538380698371 0.0625 0  0.004277569313095364 0.0625 0  0.009607359798386061 0.0625 0  0.01703708685546806 0.0625 0  0.02653493525245065 0.0625 0  0.03806023374436157 0.0625 0  0.05156362923366253 0.0625 0  0.06698729810778931 0.0625 0  0.08426519384873815 0.0625 0  0.1033233298543955 0.0625 0  0.1240800962605269 0.0625 0  0.1464466094067445 0.0625 0  0.1703270924499866 0.0625 0  0.1956192854956637 0.0625 0  0.2222148834902257 0.0625 0  0.2500000000000299 0.0625 0  0.2788556548905322 0.0625 0  0.308658283817491 0.0625 0  0.339280267348458 0.0625 0  0.3705904774487813 0.0625 0  0.4024548389919803 0.0625 0  0.4347369038900211 0.0625 0  0.467298435384978 0.0625 0  0.5000000000000517 0.0625 0  0.5327015646151253 0.0625 0  0.5652630961100813 0.0625 0  0.5975451610081212 0.0625 0  0.6294095225513188 0.0625 0  0.6607197326516399 0.0625 0  0.6913417161826045 0.0625 0  0.7211443451095605 0.0625 0  0.7500000000000597 0.0625 0  0.7777851165098603 0.0625 0  0.8043807145044185 0.0625 0  0.829672907550091 0.0625 0  0.8535533905933287 0.0625 0  0.8759199037395413 0.0625 0  0.8966766701456674 0.0625 0  0.9157348061513193 0.0625 0  0.9330127018922625 0.0625 0  0.9484363707663832 0.0625 0  0.961939766255678 0.0625 0  0.9734650647475827 0.0625 0  0.9829629131445586 0.0625 0  0.9903926402016341 0.0625 0  0.9957224306869181 0.0625 0  0.9989294616193084 0.0625 0  1 0.0625 0  0 0.08333333333333333 0  0.001070538380698371 0.08333333333333333 0  0.004277569313095364 0.08333333333333333 0  0.009607359798386061 0.08333333333333333 0  0.01703708685546806 0.08333333333333333 0  0.02653493525245065 0.08333333333333333 0  0.03806023374436157 0.08333333333333333 0  0.05156362923366253 0.08333333333333333 0  0.06698729810778931 0.08333333333333333 0  0.08426519384873815 0.08333333333333333 0  0.1033233298543955 0.08333333333333333 0  0.1240800962605269 0.08333333333333333 0  0.1464466094067445 0.08333333333333333 0  0.1703270924499866 0.08333333333333333 0  0.1956192854956637 0.08333333333333333 0  0.2222148834902257 0.08333333333333333 0  0.2500000000000299 0.08333333333333333 0  0.2788556548905322 0.08333333333333333 0  0.308658283817491 0.08333333333333333 0  0.339280267348458 0.08333333333333333 0  0.3705904774487813 0.08333333333333333 0  0.4024548389919803 0.08333333333333333 0  0.4347369038900211 0.08333333333333333 0  0.467298435384978 0.08333333333333333 0  0.5000000000000517 0.08333333333333333 0  0.5327015646151253 0.08333333333333333 0  0.5652630961100813 0.08333333333333333 0  0.5975451610081212 0.08333333333333333 0  0.6294095225513188 0.08333333333333333 0  0.6607197326516399 0.08333333333333333 0  0.6913417161826045 0.08333333333333333 0  0.7211443451095605 0.08333333333333333 0  0.7500000000000597 0.08333333333333333 0  0.7777851165098603 0.08333333333333333 0  0.8043807145044185 0.08333333333333333 0  0.829672907550091 0.08333333333333333 0  0.8535533905933287 0.08333333333333333 0  0.8759199037395413 0.08333333333333333 0  0.8966766701456674 0.08333333333333333 0  0.9157348061513193 0.08333333333333333 0  0.9330127018922625 0.08333333333333333 0  0.9484363707663832 0.08333333333333333 0  0.961939766255678 0.08333333333333333 0  0.9734650647475827 0.08333333333333333 0  0.9829629131445586 0.08333333333333333 0  0.9903926402016341 0.08333333333333333 0  0.9957224306869181 0.08333333333333333 0  0.9989294616193084 0.08333333333333333 0  1 0.08333333333333333 0  0 0.1041666666666667 0  0.001070538380698371 0.1041666666666667 0  0.004277569313095364 0.1041666666666667 0  0.009607359798386061 0.1041666666666667 0  0.01703708685546806 0.1041666666666667 0  0.02653493525245065 0.1041666666666667 0  0.03806023374436157 0.1041666666666667 0  0.05156362923366253 0.1041666666666667 0  0.06698729810778931 0.1041666666666667 0  0.08426519384873815 0.1041666666666667 0  0.1033233298543955 0.1041666666666667 0  0.1240800962605269 0.1041666666666667 0  0.1464466094067445 0.1041666666666667 0  0.1703270924499866 0.1041666666666667 0  0.1956192854956637 0.1041666666666667 0  0.2222148834902257 0.1041666666666667 0  0.2500000000000299 0.1041666666666667 0  0.2788556548905322 0.1041666666666667 0  0.308658283817491 0.1041666666666667 0  0.339280267348458 0.1041666666666667 0  0.3705904774487813 0.1041666666666667 0  0.4024548389919803 0.1041666666666667 0  0.4347369038900211 0.1041666666666667 0  0.467298435384978 0.1041666666666667 0  0.5000000000000517 0.1041666666666667 0  0.5327015646151253 0.1041666666666667 0  0.5652630961100813 0.1041666666666667 0  0.5975451610081212 0.1041666666666667 0  0.62
[...]
<PointData  Scalars="f_11969646"> 
<DataArray  type="Float64"  Name="f_11969646"  format="ascii">-1.8119314518046088e-03  -1.8097869232660943e-03  -1.1987948892442834e-03  -8.9310890993098970e-04  -2.4876113245520994e-03  -9.2116079742703208e-03  -2.4994268593098397e-02  -5.2914511576553504e-02  -9.5245628804910956e-02  -1.5530291609243221e-01  -2.3516419317802750e-01  -3.2949543704178114e-01  -4.3891660567452928e-01  -5.5286912859406789e-01  -6.7644673008756562e-01  -7.8945944357374553e-01  -9.0487379620262809e-01  -9.9170086462880935e-01  -1.0757894121549632e+00  -1.1386546842988761e+00  -1.1858357960805077e+00  -1.2102091412876819e+00  -1.2210950981291802e+00  -1.2164101199396982e+00  -1.1944045383696686e+00  -1.1554424305191482e+00  -1.1093181931747713e+00  -1.0516801326431786e+00  -9.8599937422757566e-01  -9.1255371963682685e-01  -8.2714593234256539e-01  -7.4132210427628842e-01  -6.6143435251971228e-01  -5.7510954828955851e-01  -4.8463926473269642e-01  -3.9347626441324585e-01  -3.0750070964134263e-01  -2.3182227051926252e-01  -1.6849859286978608e-01  -1.1583473051549750e-01  -7.4369827864827834e-02  -4.2343764237254181e-02  -2.0214244461583219e-02  -7.5725005925726301e-03  -1.9431311650674071e-03  -2.7914481114359256e-04  -3.3944714084107344e-04  -7.2759002946605803e-04  -6.8849108797247138e-04  1.3636019819847339e-03  1.6495390933632919e-03  3.0277896508527202e-03  3.8770883363867491e-03  8.3341011332666644e-04  -8.5544571972499765e-03  -2.6033221886888256e-02  -5.3468850656523480e-02  -9.4170923611348781e-02  -1.5254859676158725e-01  -2.3133459257663058e-01  -3.2374685860873992e-01  -4.3320773547720304e-01  -5.4461638842961801e-01  -6.6385556126430145e-01  -7.7841375031757287e-01  -8.8817329179511539e-01  -9.7525633370378717e-01  -1.0492426310280103e+00  -1.1109109270817987e+00  -1.1563522741497068e+00  -1.1814529231473834e+00  -1.1892529802834917e+00  -1.1832174592613980e+00  -1.1597041720006176e+00  -1.1208010145091192e+00  -1.0737140059930050e+00  -1.0129025433032162e+00  -9.4241192805041529e-01  -8.6394925382247523e-01  -7.7703112330464907e-01  -6.8656349838052710e-01  -5.9228674915005985e-01  -4.9402642523131185e-01  -3.9816247717168435e-01  -3.1095153916240825e-01  -2.3800035711005449e-01  -1.7834815129519141e-01  -1.2957404600338110e-01  -8.9744230378928813e-02  -5.8225933658380635e-02  -3.3923622473640648e-02  -1.6470564608815106e-02  -5.0358963483804397e-03  1.1382087288148294e-03  2.8953132212315353e-03  1.8926820133079102e-03  5.6836244689728523e-04  3.3811272188590924e-04  2.7791206936865688e-02  2.7942845659743174e-02  2.8697828733041126e-02  2.8851274019576375e-02  2.5329043979024361e-02  1.4331751865576439e-02  -5.9656230051654017e-03  -3.6809335210632982e-02  -7.9652052866987288e-02  -1.3923595609134959e-01  -2.1795139598117405e-01  -3.1233490477697945e-01  -4.1687998038059548e-01  -5.2930173870382169e-01  -6.3995625401174927e-01  -7.5217393823918033e-01  -8.5558692220358490e-01  -9.4185345922580077e-01  -1.0085950547639562e+00  -1.0690408097429664e+00  -1.1087853996614230e+00  -1.1322492872804624e+00  -1.1375251159537141e+00  -1.1316718816389313e+00  -1.1050048643942829e+00  -1.0646196830774719e+00  -1.0139452492004113e+00  -9.4796273159249933e-01  -8.6888813273322596e-01  -7.8040958324194543e-01  -6.8084160771567459e-01  -5.7373810437253780e-01  -4.6040806017300451e-01  -3.4800972474300562e-01  -2.5393367495859281e-01  -1.8340672087817053e-01  -1.3278528644842255e-01  -9.5015156905842418e-02  -6.5192715592326700e-02  -3.9753916379571520e-02  -1.7892896986109876e-02  5.4872547887041166e-04  1.5072455259782973e-02  2.4388282352375064e-02  2.8221524060252440e-02  2.7699617550708655e-02  2.5328839544153610e-02  2.3443260211336713e-02  2.3158708411720123e-02  7.0963523328811423e-02  7.1018724875679021e-02  7.0386577441946846e-02  6.7890882750264156e-02  6.0722830251345346e-02  4.5736571410849601e-02  2.1320303125834564e-02  -1.2576047154690450e-02  -5.6734980463944554e-02  -1.1500846646204260e-01  -1.9316277908992827e-01  -2.8757689856484503e-01  -3.9116940521110471e-01  -4.9990256243064163e-01  -6.0652444828755459e-01  -7.0934488321066091e-01  -8.1000192596819265e-01  -8.9373512466546245e-01  -9.5701478614785684e-01  -1.0111175364357678e+00  -1.0497106443597881e+00  -1.0709444369553960e+00  -1.0793302350241996e+00  -1.0678262052847884e+00  -1.0385489292239956e+00  -9.9531422845900308e-01  -9.3979649950752508e-01  -8.7007560989548804e-01  -7.7799520557544433e-01  -6.7293025219905556e-01  -5.5431230484075988e-01  -4.2782247426088632e-01  -3.0689336909163251e-01  -2.0570026276638925e-01  -1.3500121449690655e-01  -8.9775628647470185e-02  -5.7972414454692547e-02  -3.2034753767710686e-02  -8.2908696242646671e-03  1.3547347180252068e-02  3.3426454325201964e-02  5.0446567407334830e-02  6.2911926617580147e-02  6.9651197814141419e-02  7.1775160251453626e-02  7.0854497566317898e-02  6.9380841747121835e-02  6.8574442742031533e-02  6.8584301269325604e-02  1.2348863281191291e-01  1.2335632340144236e-01  1.2127405210132579e-01  1.1527777243650729e-01  1.0319139107230382e-01  8.2654099801818606e-02  5.2413987398314883e-02  1.4232228309410627e-02  -3.1581672317994608e-02  -8.7764332535314141e-02  -1.6056856328268793e-01  -2.5136478052842065e-01  -3.5455772469329622e-01  -4.5798906354085062e-01  -5.6070109972875515e-01  -6.5927448401405042e-01  -7.4891668259869948e-01  -8.2621178710661569e-01  -8.8985387804567073e-01  -9.3819190795388041e-01  -9.7646028910369831e-01  -9.9985658579951631e-01  -1.0088822012527630e+00  -9.9365171094421556e-01  -9.5848741878507038e-01  -9.1519459190443064e-01  -8.5179569690656431e-01  -7.6587085459141191e-01  -6.6010680267916977e-01  -5.3480159140753059e-01  -3.9526382307078661e-01  -2.6404634878177713e-01  -1.6142163277472438e-01  -9.3603492601469732e-02  -5.1084659694878222e-02  -2.1177441623535850e-02  3.9867465604266905e-03  2.8236580572946403e-02  5.2030147572800008e-02  7.4515858563257972e-02  9.4538356330594625e-02  1.1147582876903181e-01  1.2258135280798384e-01  1.2826925420467244e-01  1.3006534422765678e-01  1.2969357928770289e-01  1.2855578716750696e-01  1.2820704504066019e-01  1.2808416448523441e-01  1.8267567879970326e-01  1.8254473753134853e-01  1.7913154133022713e-01  1.6946507875328268e-01  1.5129472473621119e-01  1.2378434977927291e-01  8.6779979615345476e-02  4.2099982013206173e-02  -6.2452274832766530e-03  -6.0904586386376816e-02  -1.2601639875737006e-01  -2.0967208784478661e-01  -3.0616753241652178e-01  -4.0531508502639829e-01  -4.9889299584998736e-01  -5.8833709457283623e-01  -6.6917348518656428e-01  -7.4733632975498743e-01  -8.1016531318259288e-01  -8.4964609507885014e-01  -8.8823210917645012e-01  -9.1491121798407748e-01  -9.1771874007686938e-01  -9.0323374433014214e-01  -8.7183029394926559e-01  -8.2219877265120023e-01  -7.4354093566449719e-01  -6.3392233518260821e-01  -5.0257920484398833e-01  -3.6641741946917950e-01  -2.3561067358996149e-01  -1.3346872547326616e-01  -6.6013111490931003e-02  -2.4326708155544718e-02  5.7176385914897813e-03  3.2958452489327945e-02  6.1122890106211407e-02  8.9224478869266946e-02  1.1628314887698565e-01  1.4182981207565246e-01  1.6441495268072304e-01  1.8104023051904722e-01  1.9117790006891749e-01  1.9655570972677053e-01  1.9888122740544331e-01  1.9969476507794823e-01  1.9947295659585523e-01  1.9916849337316611e-01  1.9921987217313655e-01  2.4800417692083745e-01  2.4760137400197466e-01  2.4304157563038428e-01  2.2882947030343831e-01  2.0505780343442578e-01  1.6916810173679037e-01  1.2421777136379124e-01  7.1784292174768477e-02  1.8801979359050255e-02  -3.5384654712588094e-02  -9.5289679528866994e-02  -1.6539549457607938e-01  -2.5150487082495376e-01  -3.3929020368702023e-01  -4.2685543925062486e-01  -5.1176482085294606e-01  -5.8658504790593735e-01  -6.4927892558071143e-01  -7.0881284240781328e-01  -7.5155825078110350e-01  -7.7826220688770065e-01  -7.9971847994374323e-01  -8.0894824946675092e-01  -7.9482944746333350e-01  -7.6370462723485311e-01  -7.0175154124955363e-01  -6.0083121435279496e-01  -4.7461116042146034e-01  -3.4051965477674084e-01  -2.1997718802664945e-01  -1.2362370009646272e-01  -5.8339871920196011e-02  -1.5461682917327137e-02  1.7811373810623952e-02  4.9791928090468701e-02  8.2479446921592439e-02  1.1694631634149197e-01  1.5199583026253735e-01  1.8609084747053856e-01  2.1694616479087303e-01  2.4252906336483326e-01  2.6059273469377359e-01  2.7035066666654400e-01  2.7555097968784881e-01  2.7763907976193558e-01  2.7788482584873975e-01  2.7816314194088798e-01  2.7824361775757550e-01  2.7827244441822396e-01  3.1993982705872681e-01  3.1944996975903928e-01  3.1286862073219546e-01  2.9632769790203589e-01  2.6511064145807900e-01  2.2221718381204103e-01  1.6662297493248038e-01  1.0532237969008930e-01  4.4577126660502703e-02  -1.1440525776245731e-02  -6.7279790159621503e-02  -1.2682909155490835e-01  -1.9383453887494098e-01  -2.7017602237568322e-01  -3.4639443087509675e-01  -4.1757586932443602e-01  -4.8438283947537364e-01  -5.4233379760393996e-01  -5.9636949877912060e-01  -6.3962285029282184e-01  -6.6115514072951342e-01  -6.7571530055078588e-01  -6.8064578999750547e-01  -6.6730583549440170e-01  -6.2279163752510069e-01  -5.4878486592577269e-01  -4.4340908764507880e-01  -3.3050147480664105e-01  -2.2738588566213180e-01  -1.4091742183514738e-01  -7.7551033173189191e-02  -3.1285806881421026e-02  6.1624723880059143e-03  4.2645903551727891e-02  8.3180341745633379e-02  1.2899365416401970e-01  1.7546091615029638e-01  2.2090798791284474e-01  2.6358496322252012e-01  3.0048529723245510e-01  3.2834820843099155e-01  3.4603166278869602e-01  3.5683053505867901e-01  3.6153019394889113e-01  3.6292338466588731e-01  3.6406453702028302e-01  3.6420648021255825e-01  3.6428520783421886e-01  3.6425454681541136e-01  3.9316881003456355e-01  3.9271256707652846e-01  3.8560703502634674e-01  3.6638862954902324e-01  3.3318428758768454e-01  2.8346878402017844e-01  2.1958063746944764e-01  1.4709859356369920e-01  7.5298682505892556e-02  1.2648193895499491e-02  -4.1935044246787831e-02  -9.3149320327872778e-02  -1.4273955591004087e-01  -1.9712160967258380e-01  -2.5723236699782542e-01  -3.1417065462162130e-01  -3.7083578478188106e-01  -4.2198646227508291e-01  -4.6859112505241357e-01  -5.1158679456787970e-01  -5.3749315001822606e-01  -5.4560420532965925e-01  -5.4440884540735157e-01  -5.2413125402023186e-01  -4.7980713260430596e-01  -4.0570321782697916e-01  -3.2580641606861355e-01  -2.5038500371710015e-01  -1.8293420156689316e-01  -1.2461221953062192e-01  -7.3970396270243752e-02  -3.4488245052351568e-02  7.6462323092788545e-03  5.8576037937161124e-02  1.1587461896870649e-01  1.7571208927418555e-01  2.3680706694684553e-01  2.9610325064536291e-01  3.4941830718725647e-01  3.9107567261045162e-01  4.2052363519410690e-01  4.3931022249165086e-01  4.4862771635211096e-01  4.5095875691407022e-01  4.5135975250098381e-01  4.5170378198100092e-01  4.5265985096034367e-01  4.5316673913594835e-01  4.5323853227188871e-01  4.6430912893789528e-01  4.6369921234056422e-01  4.5584339449578620e-01  4.3697103668847576e-01  4.0274671752160757e-01  3.5073271322235955e-01  2.8323413397012243e-01  2.0004269060734164e-01  1.1547113664368838e-01  4.0983522357202505e-02  -1.7582962532577150e-02  -6.3378085603914724e-02  -1.0021672826840781e-01  -1.2911378300359852e-01  -1.6223328274689908e-01  -2.1000375436704308e-01  -2.5515526443621644e-01  -2.9166724880222300e-01  -3.3015968864426626e-01  -3.6159757468206150e-01  -3.8959735257043127e-01  -4.0271316602889312e-01  -3.9735349310784956e-01  -3.8072000304809689e-01  -3.4832015496803187e-01  -3.1559938458237996e-01  -2.8849669879230672e-01  -2.6339734222512018e-01  -2.2930303260785692e-01  -1.8630160170524301e-01  -1.3075841903492152e-01  -6.4846950698196890e-02  -6.0842948102824649e-04  6.8490536355401879e-02  1.4536912258013129e-01  2.2692251567573898e-01  3.0562780122444122e-01  3.7935219114520141e-01  4.4016451449420613e-01  4.8669764309130492e-01  5.1763017038016101e-01  5.3561756596086629e-01  5.4328775245211847e-01  5.4673357862115679e-01  5.4700146031757368e-01  5.4567437683893705e-01  5.4522905565582658e-01  5.4524746891014697e-01  5.4535648982247431e-01  5.3283475899397248e-01  5.3178540238750538e-01  5.2339182488753877e-01  5.0636671829856550e-01  4.7272812388206997e-01  4.2021130001735701e-01  3.5165792677735436e-01  2.6652389887797978e-01  1.6872010547262375e-01  7.9204634370734120e-02  9.7341005615372705e-03  -3.7004209851567590e-02  -6.2935706676507844e-02  -7.1541927756478330e-02  -7.7095080509525557e-02  -9.5050065509920678e-02  -1.2772945818172882e-01  -1.5715373466343352e-01  -1.7913636611870448e-01  -2.0128686090661524e-01  -2.1932822295563639e-01  -2.3393702354469748e-01  -2.4587393058409962e-01  -2.5325915573684671e-01  -2.6942699283739879e-01  -2.9379073726732524e-01  -3.1293596151258635e-01  -3.2056725174604112e-01  -3.1563708462168666e-01  -2.8873483046933851e-01  -2.3202940232571495e-01  -1.4443102032616548e-01  -3.6762727817539032e-02  6.8399628487890815e-02  1.7162401632229593e-01  2.7524647001404656e-01  3.7624815482684193e-01  4.6476565055402702e-01  5.3374566101255427e-01  5.8384775732480176e-01  6.1594737897051488e-01  6.3230089007760404e-01  6.3982858985430802e-01  6.4180866648056067e-01  6.4040794030498149e-01  6.4000246541105021e-01  6.3981033611394400e-01  6.3955616660469583e-01  6.3939875963986492e-01  5.9900018994652326e-01  5.9858013971208779e-01  5.9090833755481909e-01  5.7152700939553280e-01  5.4089464663541298e-01  4.9122100088723891e-01  4.2591127388566374e-01  3.3785518272685194e-01  2.3340655316725242e-01  1.3062048176379365e-01  4.5445568815874970e-02  -9.4486477839766971e-03  -3.0958469131598412e-02  -2.1833474225724386e-02  -1.4783254804636148e-03  8.2655245722228019e-03  3.4645932025280618e-03  -7.4209732687372286e-03  -1.7642058842873672e-02  -3.1172560651507739e-02  -5.5494992371052057e-02  -8.4502371810903365e-02  -1.2585832332599395e-01  -1.8131331897750369e-01  -2.4002382218436613e-01  -2.9140897591341469e-01  -3.2910516008114832e-01  -3.5474603481413125e-01  -3.6475061803315711e-01  -3.5373130944096953e-01  -3.1374055433943365e-01  -2.3058960876790072e-01  -1.0338774673556664e-01  4.4649285184261228e-02  1.8402797758757539e-01  3.2138162160448808e-01  4.4359312324488437e-01  5.4727178277718991e-01  6.2308619089781436e-01  6.7791823680106755e-01  7.1135849859537037e-01  7.2829738403746258e-01  7.3528660220734554e-01  7.3738411835248563e-01  7.3745000990269327e-01  7.3522841132561301e-01  7.3417186178832028e-01  7.3423580572826586e-01  7.3435816728226966e-01  6.6243640487435484e-01  6.6134507180555957e-01  6.5592032916595489e-01  6.3640239046828606e-01  6.0800417998705725e-01  5.6173624622493323e-01  5.0019217645904157e-01  4.1676269098581009e-01  3.1137279968651982e-01  1.9224561829180320e-01  9.2964666863938353e-02  2.5079628917526631e-02  -1.0820337840395117e-03  2.0196123556944095e-02  6.3258784740185384e-02  9.8942643361980803e-02  1.2007910698613959e-01  1.3126538451420411e-01  1.3495071157426441e-01  1.2160750026878017e-01  8.0577934914196347e-02  1.4207729721803808e-02  -6.3157123295574144e-02  -1.4306258508843403e-01  -2.1210158770001902e-01  -2.6768698780382871e-01  -3.1387417252576622e-01  -3.4811949982949542e-01  -3.6798785599153050e-01  -3.7044420605494688e-01  -3.4739907680443294e-01  -2.8799837818786922e-01  -1.7305477667279212e-01  7.7742638288562657e-03  1.8906644912841528e-01  3.5756546374320897e-01  5.0116621980410425e-01  6.1836262634141481e-01  7.0558738979512214e-01  7.6787573634290529e-01  8.0234539702693985e-01  8.1912620135835779e-01  8.2679969117435170e-01  8.2793407291396737e-01  8.2684253612919711e-01  8.2693151909664042e-01  8.2709457979557710e-01  8.2710741339508331e-01  8.2702953010322733e-01  7.2458385636386624e-01  7.2397320486627204e-01  7.1660741177206899e-01  6.9836151936962976e-01  6.7089603785231000e-01  6.2999699494858563e-01  5.7166272388785155e-01  4.9496114111493827e-01  3.8749834661361809e-01  2.6964403803920373e-01  1.5047456824321778e-01  6.8262286426326396e-02  3.0746054673268196e-02  5.4733395288663264e-02  1.1879168788566136e-01  1.7633977681735544e-01  2.1656241458616368e-01  2.4634211702527478e-01  2.5213299595681748e-01  2.1692700941904691e-01  1.4503699578825685e-01  5.5035335795711675e-02  -2.9733866292182685e-02  -1.0189215186845120e-01  -1.6509092071934656e-01  -2.2584715607572792e-01  -2.8025316595093602e-01  -3.2216418625428794e-01  -3.4763560917267644e-01  -3.5444253376060736e-01  -3.3763661834739844e-01  -2.9147204408656985e-01  -2.0362336816597729e-01  -3.2710688086783367e-02  1.9074395764801694e-01  3.8527869057346281e-01  5.5247201656820888e-01  6.8321004252915285e-01  7.7806367721902447e-01  8.4281672174174216e-01  8.8092241235362490e-01  9.0262594093631621e-01  9.1181886769818055e-01  9.1328479311881727e-01  9.1181515917715583e-01  9.1211704022002704e-01  9.1208078772891799e-01  9.1259501134314158e-01  9.1284239464549055e-01  7.8528941504455818e-01  7.8454598684245125e-01  7.7793252004298274e-01  7.6112803227994208e-01  7.3534782418597200e-01  6.9865486252052400e-01  6.4377283963859566e-01  5.7111388460639523e-01  4.6907395044028038e-01  3.4391361022175143e-01  2.2106532797816550e-01  1.1754665977349092e-01  6.8521991500777993e-02  8.5353444969426345e-02  1.6502104025110426e-01  2.3929482704144989e-01  2.9036031725688627e-01  3.2488692964836874e-01  3.1651288180868592e-01  2.5347096729321450e-01  1.6268351389154539e-01  7.3985571724325558e-02  5.0325726435010724e-04  -6.2022366689677019e-02  -1.2262499727154035e-01  -1.8290004267010473e-01  -2.3728616241987666e-01  -2.8395036679311780e-01  -3.1736779486742367e-01  -3.2892325635762160e-01  -3.1624524122867637e-01  -2.7345882365024793e-01  -1.9228700743078792e-01  -4.8801807030974045e-02  1.9005730919451957e-01  4.1376007999659753e-01  5.9477032529698426e-01  7.3572877085074195e-01  8.4354315513963696e-01  9.1039160206722158e-01  9.5375461671118755e-01  9.7541107822743622e-01  9.8610911920638267e-01  9.9246582361594549e-01  9.9451314345816377e-01  9.9364598722780084e-01  9.9395697772941227e-01  9.9453289167501524e-01  9.9441046588278925e-01  8.4147231984880244e-01  8.4126254663217959e-01  8.3585562354074461e-01  8.2048369005252109e-01  7.9551783874950943e-01  7.6501928321202284e-01  7.1375593191695286e-01  6.4727133547456184e-01  5.5313030784542594e-01  4.3150429502925247e-01  2.8821986118429355e-01  1.7872598010383209e-01  1.1184542839262822e-01  1.1682271607494775e-01  2.0057455189866516e-01  2.8675974626349443e-01  3.4373129045829354e-01  3.7089322109498035e-01  3.3847736131953549e-01  2.5490988598180658e-01  1.6172292498517044e-01  8.3878782604823121e-02  2.0583671302446972e-02  -3.4687903193290189e-02  -8.7144165115484382e-02  -1.4061133289274375e-01  -1.9442938819501074e-01  -2.4173541570622886e-01  -2.7747582457612835e-01  -2.9421013951498359e-01  -2.8556182198201890e-01  -2.4780045189881084e-01  -1.6819648425623654e-01  -3.9383280844475448e-02  1.8682630676677986e-01  4.3476708478684206e-01  6.2966477978717961e-01  7.8477827475240458e-01  8.9628219180440771e-01  9.6736250416750769e-01  1.0151325461022433e+00  1.0416930088543730e+00  1.0551800097147945e+00  1.0599430558530172e+00  1.0623703142278516e+00  1.0645020738836304e+00  1.0658775650887078e+00  1.0662553598497366e+00  1.0663235560079107e+00  9.0025732359035249e-01  8.9960699441187508e-01  8.9368706087979477e-01  8.7896336507896589e-01  8.5695384398669916e-01  8.2460360438709912e-01  7.8152989393696093e-01  7.1743342979762437e-01  6.3641564141367202e-01  5.1617967869964299e-01  3.6811991860922233e-01  2.4183497773559198e-01  1.6014879371463192e-01  1.5001462591761724e-01  2.2624806505669512e-01  3.2109439229181669e-01  3.7744706887579932e-01  3.8808662061859678e-01  3.3307593316870593e-01  2.3996155800058447e-01  1.5383219327325223e-01  8.6749809715699344e-02  3.2572355336858087e-02  -1.4777556638216937e-02  -5.9208969284521164e-02  -1.0334099647700008e-01  -1.4952684954476098e-01  -1.9637645512149238e-01  -2.3342824351383579e-