<?xml version="1.0"?>
<VTKFile type="UnstructuredGrid"  version="0.1"  >
<UnstructuredGrid>
<Piece  NumberOfPoints="2401" NumberOfCells="4608">
<Points>
<DataArray  type="Float64"  NumberOfComponents="3"  format="ascii">0 0 0  0.001070538380698371 0 0  0.004277569313095364 0 0  0.009607359798386061 0 0  0.01703708685546806 0 0  0.02653493525245065 0 0  0.03806023374436157 0 0  0.05156362923366253 0 0  0.06698729810778931 0 0  0.08426519384873815 0 0  0.1033233298543955 0 0  0.1240800962605269 0 0  0.1464466094067445 0 0  0.1703270924499866 0 0  0.1956192854956637 0 0  0.2222148834902257 0 0  0.2500000000000299 0 0  0.2788556548905322 0 0  0.308658283817491 0 0  0.339280267348458 0 0  0.3705904774487813 0 0  0.4024548389919803 0 0  0.4347369038900211 0 0  0.467298435384978 0 0  0.5000000000000517 0 0  0.5327015646151253 0 0  0.5652630961100813 0 0  0.5975451610081212 0 0  0.6294095225513188 0 0  0.6607197326516399 0 0  0.6913417161826045 0 0  0.7211443451095605 0 0  0.7500000000000597 0 0  0.7777851165098603 0 0  0.8043807145044185 0 0  0.829672907550091 0 0  0.8535533905933287 0 0  0.8759199037395413 0 0  0.8966766701456674 0 0  0.9157348061513193 0 0  0.9330127018922625 0 0  0.9484363707663832 0 0  0.961939766255678 0 0  0.9734650647475827 0 0  0.9829629131445586 0 0  0.9903926402016341 0 0  0.9957224306869181 0 0  0.9989294616193084 0 0  1 0 0  0 0.02083333333333333 0  0.001070538380698371 0.02083333333333333 0  0.004277569313095364 0.02083333333333333 0  0.009607359798386061 0.02083333333333333 0  0.01703708685546806 0.02083333333333333 0  0.02653493525245065 0.02083333333333333 0  0.03806023374436157 0.02083333333333333 0  0.05156362923366253 0.02083333333333333 0  0.06698729810778931 0.02083333333333333 0  0.08426519384873815 0.02083333333333333 0  0.1033233298543955 0.02083333333333333 0  0.1240800962605269 0.02083333333333333 0  0.1464466094067445 0.02083333333333333 0  0.1703270924499866 0.02083333333333333 0  0.1956192854956637 0.02083333333333333 0  0.2222148834902257 0.02083333333333333 0  0.2500000000000299 0.02083333333333333 0  0.2788556548905322 0.02083333333333333 0  0.308658283817491 0.02083333333333333 0  0.339280267348458 0.02083333333333333 0  0.3705904774487813 0.02083333333333333 0  0.4024548389919803 0.02083333333333333 0  0.4347369038900211 0.02083333333333333 0  0.467298435384978 0.02083333333333333 0  0.5000000000000517 0.02083333333333333 0  0.5327015646151253 0.02083333333333333 0  0.5652630961100813 0.02083333333333333 0  0.5975451610081212 0.02083333333333333 0  0.6294095225513188 0.02083333333333333 0  0.6607197326516399 0.02083333333333333 0  0.6913417161826045 0.02083333333333333 0  0.7211443451095605 0.02083333333333333 0  0.7500000000000597 0.02083333333333333 0  0.7777851165098603 0.02083333333333333 0  0.8043807145044185 0.02083333333333333 0  0.829672907550091 0.02083333333333333 0  0.8535533905933287 0.02083333333333333 0  0.8759199037395413 0.02083333333333333 0  0.8966766701456674 0.02083333333333333 0  0.9157348061513193 0.02083333333333333 0  0.9330127018922625 0.02083333333333333 0  0.9484363707663832 0.02083333333333333 0  0.961939766255678 0.02083333333333333 0  0.9734650647475827 0.02083333333333333 0  0.9829629131445586 0.02083333333333333 0  0.9903926402016341 0.02083333333333333 0  0.9957224306869181 0.02083333333333333 0  0.9989294616193084 0.02083333333333333 0  1 0.02083333333333333 0  0 0.04166666666666666 0  0.001070538380698371 0.04166666666666666 0  0.004277569313095364 0.04166666666666666 0  0.009607359798386061 0.04166666666666666 0  0.01703708685546806 0.04166666666666666 0  0.02653493525245065 0.04166666666666666 0  0.03806023374436157 0.04166666666666666 0  0.05156362923366253 0.04166666666666666 0  0.06698729810778931 0.04166666666666666 0  0.08426519384873815 0.04166666666666666 0  0.1033233298543955 0.04166666666666666 0  0.1240800962605269 0.04166666666666666 0  0.1464466094067445 0.04166666666666666 0  0.1703270924499866 0.04166666666666666 0  0.1956192854956637 0.04166666666666666 0  0.2222148834902257 0.04166666666666666 0  0.2500000000000299 0.04166666666666666 0  0.2788556548905322 0.04166666666666666 0  0.308658283817491 0.04166666666666666 0  0.339280267348458 0.04166666666666666 0  0.3705904774487813 0.04166666666666666 0  0.4024548389919803 0.04166666666666666 0  0.4347369038900211 0.04166666666666666 0  0.467298435384978 0.04166666666666666 0  0.5000000000000517 0.04166666666666666 0  0.5327015646151253 0.04166666666666666 0  0.5652630961100813 0.04166666666666666 0  0.5975451610081212 0.04166666666666666 0  0.6294095225513188 0.04166666666666666 0  0.6607197326516399 0.04166666666666666 0  0.6913417161826045 0.04166666666666666 0  0.7211443451095605 0.04166666666666666 0  0.7500000000000597 0.04166666666666666 0  0.7777851165098603 0.04166666666666666 0  0.8043807145044185 0.04166666666666666 0  0.829672907550091 0.04166666666666666 0  0.8535533905933287 0.04166666666666666 0  0.8759199037395413 0.04166666666666666 0  0.8966766701456674 0.04166666666666666 0  0.9157348061513193 0.04166666666666666 0  0.9330127018922625 0.04166666666666666 0  0.9484363707663832 0.04166666666666666 0  0.961939766255678 0.04166666666666666 0  0.9734650647475827 0.04166666666666666 0  0.9829629131445586 0.04166666666666666 0  0.9903926402016341 0.04166666666666666 0  0.9957224306869181 0.04166666666666666 0  0.9989294616193084 0.04166666666666666 0  1 0.04166666666666666 0  0 0.0625 0  0.001070538380698371 0.0625 0  0.004277569313095364 0.0625 0  0.009607359798386061 0.0625 0  0.01703708685546806 0.0625 0  0.02653493525245065 0.0625 0  0.03806023374436157 0.0625 0  0.05156362923366253 0.0625 0  0.06698729810778931 0.0625 0  0.08426519384873815 0.0625 0  0.1033233298543955 0.0625 0  0.1240800962605269 0.0625 0  0.1464466094067445 0.0625 0  0.1703270924499866 0.0625 0  0.1956192854956637 0.0625 0  0.2222148834902257 0.0625 0  0.2500000000000299 0.0625 0  0.2788556548905322 0.0625 0  0.308658283817491 0.0625 0  0.339280267348458 0.0625 0  0.3705904774487813 0.0625 0  0.4024548389919803 0.0625 0  0.4347369038900211 0.0625 0  0.467298435384978 0.0625 0  0.5000000000000517 0.0625 0  0.5327015646151253 0.0625 0  0.5652630961100813 0.0625 0  0.5975451610081212 0.0625 0  0.6294095225513188 0.0625 0  0.6607197326516399 0.0625 0  0.6913417161826045 0.0625 0  0.7211443451095605 0.0625 0  0.7500000000000597 0.0625 0  0.7777851165098603 0.0625 0  0.8043807145044185 0.0625 0  0.829672907550091 0.0625 0  0.8535533905933287 0.0625 0  0.8759199037395413 0.0625 0  0.8966766701456674 0.0625 0  0.9157348061513193 0.0625 0  0.9330127018922625 0.0625 0  0.9484363707663832 0.0625 0  0.961939766255678 0.0625 0  0.9734650647475827 0.0625 0  0.9829629131445586 0.0625 0  0.9903926402016341 0.0625 0  0.9957224306869181 0.0625 0  0.9989294616193084 0.0625 0  1 0.0625 0  0 0.08333333333333333 0  0.001070538380698371 0.08333333333333333 0  0.004277569313095364 0.08333333333333333 0  0.009607359798386061 0.08333333333333333 0  0.01703708685546806 0.08333333333333333 0  0.02653493525245065 0.08333333333333333 0  0.03806023374436157 0.08333333333333333 0  0.05156362923366253 0.08333333333333333 0  0.06698729810778931 0.08333333333333333 0  0.08426519384873815 0.08333333333333333 0  0.1033233298543955 0.08333333333333333 0  0.1240800962605269 0.08333333333333333 0  0.1464466094067445 0.08333333333333333 0  0.1703270924499866 0.08333333333333333 0  0.1956192854956637 0.08333333333333333 0  0.2222148834902257 0.08333333333333333 0  0.2500000000000299 0.08333333333333333 0  0.2788556548905322 0.08333333333333333 0  0.308658283817491 0.08333333333333333 0  0.339280267348458 0.08333333333333333 0  0.3705904774487813 0.08333333333333333 0  0.4024548389919803 0.08333333333333333 0  0.4347369038900211 0.08333333333333333 0  0.467298435384978 0.08333333333333333 0  0.5000000000000517 0.08333333333333333 0  0.5327015646151253 0.08333333333333333 0  0.5652630961100813 0.08333333333333333 0  0.5975451610081212 0.08333333333333333 0  0.6294095225513188 0.08333333333333333 0  0.6607197326516399 0.08333333333333333 0  0.6913417161826045 0.08333333333333333 0  0.7211443451095605 0.08333333333333333 0  0.7500000000000597 0.08333333333333333 0  0.7777851165098603 0.08333333333333333 0  0.8043807145044185 0.08333333333333333 0  0.829672907550091 0.08333333333333333 0  0.8535533905933287 0.08333333333333333 0  0.8759199037395413 0.08333333333333333 0  0.8966766701456674 0.08333333333333333 0  0.9157348061513193 0.08333333333333333 0  0.9330127018922625 0.08333333333333333 0  0.9484363707663832 0.08333333333333333 0  0.961939766255678 0.08333333333333333 0  0.9734650647475827 0.08333333333333333 0  0.9829629131445586 0.08333333333333333 0  0.9903926402016341 0.08333333333333333 0  0.9957224306869181 0.08333333333333333 0  0.9989294616193084 0.08333333333333333 0  1 0.08333333333333333 0  0 0.1041666666666667 0  0.001070538380698371 0.1041666666666667 0  0.004277569313095364 0.1041666666666667 0  0.009607359798386061 0.1041666666666667 0  0.01703708685546806 0.1041666666666667 0  0.02653493525245065 0.1041666666666667 0  0.03806023374436157 0.1041666666666667 0  0.05156362923366253 0.1041666666666667 0  0.06698729810778931 0.1041666666666667 0  0.08426519384873815 0.1041666666666667 0  0.1033233298543955 0.1041666666666667 0  0.1240800962605269 0.1041666666666667 0  0.1464466094067445 0.1041666666666667 0  0.1703270924499866 0.1041666666666667 0  0.1956192854956637 0.1041666666666667 0  0.2222148834902257 0.1041666666666667 0  0.2500000000000299 0.1041666666666667 0  0.2788556548905322 0.1041666666666667 0  0.308658283817491 0.1041666666666667 0  0.339280267348458 0.1041666666666667 0  0.3705904774487813 0.1041666666666667 0  0.4024548389919803 0.1041666666666667 0  0.4347369038900211 0.1041666666666667 0  0.467298435384978 0.1041666666666667 0  0.5000000000000517 0.1041666666666667 0  0.5327015646151253 0.1041666666666667 0  0.5652630961100813 0.1041666666666667 0  0.5975451610081212 0.1041666666666667 0  0.62
[...]
<PointData  Scalars="f_11969661"> 
<DataArray  type="Float64"  Name="f_11969661"  format="ascii">9.9909363398450990e-01  9.9856215406695692e-01  9.9732897424447930e-01  9.9664695055077124e-01  9.9730132772696312e-01  9.9949705936707944e-01  1.0039484668249845e+00  1.0110739360983132e+00  1.0212622092119847e+00  1.0380796184672147e+00  1.0666512691376011e+00  1.1025083407921290e+00  1.1447536648329322e+00  1.1847089225304326e+00  1.2255713790879443e+00  1.2577302400813433e+00  1.2887386408550514e+00  1.3080650050648519e+00  1.3052101861481631e+00  1.2955563029333517e+00  1.2769622607945152e+00  1.2537891968454551e+00  1.2206119802754010e+00  1.1823144745535963e+00  1.1457365541211377e+00  1.1108776779945420e+00  1.0757685911400383e+00  1.0461249782359809e+00  1.0206775531527861e+00  1.0004532032653861e+00  9.8483976538724571e-01  9.7383169722071505e-01  9.6688868870471278e-01  9.6431821269511708e-01  9.6373435349357495e-01  9.6327780331182677e-01  9.6277489329613708e-01  9.6258297295470296e-01  9.6619079363847504e-01  9.7203072315256089e-01  9.7934857032225109e-01  9.8755908895324784e-01  9.9417742081829408e-01  9.9839723967955118e-01  1.0007566875952949e+00  1.0015748709658028e+00  1.0013080401670060e+00  1.0007288949272781e+00  1.0005666699360536e+00  1.0023265377773811e+00  1.0022950802194228e+00  1.0047965041785289e+00  1.0116165602676248e+00  1.0237087231898931e+00  1.0410154460713925e+00  1.0617113150124402e+00  1.0830643236433843e+00  1.1039764809563795e+00  1.1260557506229036e+00  1.1527775701615706e+00  1.1858531570136988e+00  1.2225887801967972e+00  1.2616807801364676e+00  1.2943529192097740e+00  1.3240050410755506e+00  1.3472273215965136e+00  1.3623377998084016e+00  1.3629368542929658e+00  1.3506284401275634e+00  1.3267244498952124e+00  1.2959184553757483e+00  1.2614966929816109e+00  1.2201577608182250e+00  1.1783213311104774e+00  1.1380689433916904e+00  1.1007280131202408e+00  1.0629096020963447e+00  1.0337782159231477e+00  1.0077941534997996e+00  9.8548555266227733e-01  9.6849708434388204e-01  9.5460929573147968e-01  9.4211014390592418e-01  9.2886641767317579e-01  9.1493148381715705e-01  9.0413063387984260e-01  8.9978718624404985e-01  9.0052443166624185e-01  9.0675206024549604e-01  9.1739239200149769e-01  9.3113274788800060e-01  9.4726321158742877e-01  9.6396658418143488e-01  9.7862958401503297e-01  9.8934654151844115e-01  9.9577765928928197e-01  9.9832965588088107e-01  9.9869914355204792e-01  1.0160989389663839e+00  1.0163227702936117e+00  1.0218543768735808e+00  1.0357971403356532e+00  1.0592923011197812e+00  1.0912800948178061e+00  1.1286049106258169e+00  1.1700436182422316e+00  1.2127328012844250e+00  1.2527801015705318e+00  1.2893092881101356e+00  1.3244402997111533e+00  1.3604875794893372e+00  1.3936972837330963e+00  1.4267881164490919e+00  1.4459049773742212e+00  1.4596187265147891e+00  1.4637209961521540e+00  1.4576882106862048e+00  1.4346683845787160e+00  1.4087676042343937e+00  1.3699730068853315e+00  1.3298128824953179e+00  1.2811130265099477e+00  1.2315174768916459e+00  1.1863691149652900e+00  1.1437778247993118e+00  1.1002516459572069e+00  1.0647975773167375e+00  1.0326512960858492e+00  1.0043825958143000e+00  9.7827663084997507e-01  9.5121451233981758e-01  9.1765667303768128e-01  8.7994123564108140e-01  8.4703792489401752e-01  8.2662352504943060e-01  8.1918582468512258e-01  8.2291164838353015e-01  8.3491973159365085e-01  8.5355709741168895e-01  8.7694464806758332e-01  9.0334593666971053e-01  9.2956173442658396e-01  9.5305998022367588e-01  9.7185827233245337e-01  9.8412754555947535e-01  9.9002829067055365e-01  9.9071328836985906e-01  1.0403159347383950e+00  1.0409507606497961e+00  1.0485109497929537e+00  1.0654215275940802e+00  1.0952262108184394e+00  1.1378882986556327e+00  1.1892865001776682e+00  1.2455547678527847e+00  1.3045008310083190e+00  1.3639714348616052e+00  1.4174477431423815e+00  1.4613865492545985e+00  1.5024840485037028e+00  1.5403288558839323e+00  1.5676528431428887e+00  1.5869405006696577e+00  1.5922109083297638e+00  1.5819940515127338e+00  1.5665059443930798e+00  1.5410447411196442e+00  1.5020908918898266e+00  1.4552094537684392e+00  1.4019403131441137e+00  1.3510042502556481e+00  1.2944540550828234e+00  1.2417658017169482e+00  1.1950727706802544e+00  1.1473713347289205e+00  1.1056567452322512e+00  1.0730066322237011e+00  1.0387515118318535e+00  9.9754727935823539e-01  9.4087736518763498e-01  8.7479428143671689e-01  8.1859526386883208e-01  7.8504814254352639e-01  7.7175198619916507e-01  7.7174254937293030e-01  7.8069145786837646e-01  7.9693051203421050e-01  8.1940882290164252e-01  8.4753224244956071e-01  8.7921556958838654e-01  9.1167130472106928e-01  9.4106173636419688e-01  9.6482107255508454e-01  9.7917717082957678e-01  9.8509605835084202e-01  9.8564596678759220e-01  1.0769234495764974e+00  1.0776634637248210e+00  1.0855389056398754e+00  1.1045024861292445e+00  1.1369265331700100e+00  1.1839713602707611e+00  1.2444594400789704e+00  1.3136232592161550e+00  1.3869667193564523e+00  1.4626545433149423e+00  1.5354836080274372e+00  1.5972321829483611e+00  1.6472845251972288e+00  1.6849385442751861e+00  1.7082989037161351e+00  1.7261166236337122e+00  1.7315217666340055e+00  1.7151137362182565e+00  1.6873851353908360e+00  1.6552926403824797e+00  1.6055546058250794e+00  1.5473893942679269e+00  1.4837926985746193e+00  1.4231941867650073e+00  1.3648315685261587e+00  1.3016840076581011e+00  1.2487490275376050e+00  1.2046488037267076e+00  1.1571958345287465e+00  1.1134010408330097e+00  1.0534699241103502e+00  9.6952459940965641e-01  8.7536421003647402e-01  8.0007970704507814e-01  7.5768740267893331e-01  7.4181929478699415e-01  7.3966399067993804e-01  7.4490798063886021e-01  7.5736243366975509e-01  7.7699618773698653e-01  8.0376580201717152e-01  8.3756108726540845e-01  8.7521367518238358e-01  9.1299059793039827e-01  9.4724865466648789e-01  9.7254818991803538e-01  9.8885488004865263e-01  9.9461488174837676e-01  9.9533232960694984e-01  1.1278997066211682e+00  1.1284693477381920e+00  1.1359110301357647e+00  1.1546834978811589e+00  1.1872254626452765e+00  1.2343390086612167e+00  1.2963332837412311e+00  1.3732387197852842e+00  1.4576909115102110e+00  1.5467344978559578e+00  1.6375825183360175e+00  1.7198363933062806e+00  1.7826618130858221e+00  1.8245949873124478e+00  1.8584280916902660e+00  1.8801875563601922e+00  1.8771195807979546e+00  1.8463567606899980e+00  1.8080088349969499e+00  1.7711663114450928e+00  1.7138416975819153e+00  1.6456962245361595e+00  1.5778902625686362e+00  1.5046417038794320e+00  1.4315333105023020e+00  1.3669544315317810e+00  1.3060268986771368e+00  1.2522280092410616e+00  1.1900210477782043e+00  1.1040372124291131e+00  9.9116620666953881e-01  8.7056470691109067e-01  7.8023329756934112e-01  7.3534637039416184e-01  7.2043353070572391e-01  7.1766311638058367e-01  7.2144357907951595e-01  7.3264275924616784e-01  7.5103039735299515e-01  7.7638169362120035e-01  8.0895814703454494e-01  8.4953490917936059e-01  8.9326480222409566e-01  9.3663572641704917e-01  9.7550767260141136e-01  1.0024448769400389e+00  1.0192085112162319e+00  1.0264176248638182e+00  1.0267592644609442e+00  1.1943233392174823e+00  1.1951320832814176e+00  1.2012637768657985e+00  1.2186522620341795e+00  1.2476313237529659e+00  1.2907293870826666e+00  1.3492446779222493e+00  1.4259083840380600e+00  1.5163125871521725e+00  1.6161322428302287e+00  1.7198411185640718e+00  1.8223581336300612e+00  1.9049305337804132e+00  1.9624422353299016e+00  2.0001228471706511e+00  2.0103428660684344e+00  1.9997470517533518e+00  1.9806756583828005e+00  1.9372214825505878e+00  1.8811194126771054e+00  1.8259839850323454e+00  1.7550825990834944e+00  1.6727276111728056e+00  1.5888158014506131e+00  1.5083434444820141e+00  1.4348171973202533e+00  1.3551231433757100e+00  1.2572189754144669e+00  1.1327745941594694e+00  9.9036463889252735e-01  8.5211786317534688e-01  7.5435956572684049e-01  7.0843064607084771e-01  6.9559580336180427e-01  6.9626143381737415e-01  7.0404183493640349e-01  7.1686736675149032e-01  7.3564031738292668e-01  7.6133733344321253e-01  7.9465641404176635e-01  8.3659811920154381e-01  8.8441738025565309e-01  9.3539148992128129e-01  9.8626957071243659e-01  1.0291558373741883e+00  1.0588862893062230e+00  1.0761884932005115e+00  1.0838113373181686e+00  1.0843044029971356e+00  1.2825193985234127e+00  1.2829565223214674e+00  1.2882722451760438e+00  1.3010118892574154e+00  1.3231953627466095e+00  1.3564391039846855e+00  1.4060303669575429e+00  1.4751826250905871e+00  1.5653426280019147e+00  1.6704362072845240e+00  1.7838061362216358e+00  1.8998162144223341e+00  2.0063882667832456e+00  2.0802315230720581e+00  2.1231877746603613e+00  2.1382383987677831e+00  2.1282504382621967e+00  2.1016253712011821e+00  2.0533825278283282e+00  1.9870526638837198e+00  1.9227521732288593e+00  1.8478804177684505e+00  1.7624473483625755e+00  1.6660833153505099e+00  1.5738616809409125e+00  1.4689723744492478e+00  1.3325102202866610e+00  1.1598838913556950e+00  9.7892640210670856e-01  8.2200464573774346e-01  7.2031617603896814e-01  6.7250258286562781e-01  6.6482541557183061e-01  6.7270042926100071e-01  6.8507882042652590e-01  7.0045835506681775e-01  7.2245469967471410e-01  7.5129655436407816e-01  7.8799148579071210e-01  8.3347291728662531e-01  8.8636718953852822e-01  9.4427293330377859e-01  1.0047769530671451e+00  1.0623138845272742e+00  1.1106960851606180e+00  1.1424607268255884e+00  1.1617294952514250e+00  1.1694499236842419e+00  1.1701398108444354e+00  1.3962485599296945e+00  1.3967131752367283e+00  1.3999728138443355e+00  1.4067382464622444e+00  1.4180317117567562e+00  1.4375565571448075e+00  1.4711878123755260e+00  1.5260604364332155e+00  1.6068602805658292e+00  1.7107353216657060e+00  1.8296910412322960e+00  1.9554387092631578e+00  2.0778189158018590e+00  2.1779403210733332e+00  2.2307428144125718e+00  2.2493124033474641e+00  2.2391126482160115e+00  2.2076771457792121e+00  2.1584247869537729e+00  2.0892425674011834e+00  2.0093920508987493e+00  1.9296249559618310e+00  1.8305500849357603e+00  1.7207942790041835e+00  1.5915232084023927e+00  1.4152230220623254e+00  1.1904930241830691e+00  9.5893887751099727e-01  7.7597623422982587e-01  6.6106176857231280e-01  6.1453072128818342e-01  6.2126794183283518e-01  6.3984489094500374e-01  6.5806239617330653e-01  6.7909841066282373e-01  7.0532153749311277e-01  7.3726619265556947e-01  7.7814476749680050e-01  8.2864637469912927e-01  8.8956260764318118e-01  9.5754688264457277e-01  1.0294888031142042e+00  1.0988828964513135e+00  1.1620034983084875e+00  1.2164210220563965e+00  1.2532620838932931e+00  1.2734233790628946e+00  1.2821367193124058e+00  1.2824251756958633e+00  1.5287237400808720e+00  1.5290088890251210e+00  1.5297496694681612e+00  1.5304950694367134e+00  1.5315787819273161e+00  1.5353441851441272e+00  1.5482596908420083e+00  1.5813103268426496e+00  1.6451762420072888e+00  1.7400087762513148e+00  1.8590360787561309e+00  1.9903214425280813e+00  2.1222264917241778e+00  2.2403254202047900e+00  2.3162255455351328e+00  2.3366860805481431e+00  2.3244908925387571e+00  2.2953013133084270e+00  2.2462826408385590e+00  2.1821237382864092e+00  2.0943127452587147e+00  1.9949105383370984e+00  1.8782081794031957e+00  1.7298317004456087e+00  1.5282120222820792e+00  1.2666639537846438e+00  1.0025738825779362e+00  7.9798966631299528e-01  6.6850855189981584e-01  6.0349040354218420e-01  5.7932873832909171e-01  5.8840851715122511e-01  6.1833233107440699e-01  6.4806885959294835e-01  6.7700876831548029e-01  7.1239222513297484e-01  7.5932732597426866e-01  8.1680671400168103e-01  8.8499217272021147e-01  9.6367589527792874e-01  1.0501020841959614e+00  1.1356418930665508e+00  1.2167214004517124e+00  1.2892515930878812e+00  1.3504569140998863e+00  1.3916342063802292e+00  1.4141680239187489e+00  1.4232092199606974e+00  1.4235986471816451e+00  1.6728984753394966e+00  1.6728077063773268e+00  1.6712472676611514e+00  1.6675735642845793e+00  1.6582110769577463e+00  1.6456861825160953e+00  1.6379910069054613e+00  1.6468915294279667e+00  1.6866297287401415e+00  1.7637260531076429e+00  1.8739740103678892e+00  2.0058160884037566e+00  2.1424883566300954e+00  2.2712075220098904e+00  2.3643139748569535e+00  2.4011523580720264e+00  2.3963414539833483e+00  2.3634973921911637e+00  2.3144486242665852e+00  2.2458427483767305e+00  2.1507537144001829e+00  2.0289258279170128e+00  1.8664467878591191e+00  1.6515054519632277e+00  1.3843517809669188e+00  1.1239735199487062e+00  9.3540836673514738e-01  8.2967693322078462e-01  7.6781834425949647e-01  7.1527002292059605e-01  6.6836080648266116e-01  6.3319685310362916e-01  6.2333719194295989e-01  6.4439936537794384e-01  6.7933048450467004e-01  7.2682954390522991e-01  7.8545782049748969e-01  8.6301420361523651e-01  9.5189547208903025e-01  1.0522414415301129e+00  1.1567941470561964e+00  1.2591176932468426e+00  1.3517426643179089e+00  1.4350276611465187e+00  1.5026590683952932e+00  1.5486081475237177e+00  1.5755297939272987e+00  1.5862221814413133e+00  1.5867001858520124e+00  1.8238452080321690e+00  1.8237627874959463e+00  1.8193214926939378e+00  1.8084824034872737e+00  1.7920349634996195e+00  1.7667626526992095e+00  1.7404051173593318e+00  1.7218782917548543e+00  1.7328359561198459e+00  1.7860066979718536e+00  1.8788703965554889e+00  2.0033988695327252e+00  2.1418970366861645e+00  2.2747278314495256e+00  2.3754978829770796e+00  2.4263344132735498e+00  2.4288159748809108e+00  2.4003742097673717e+00  2.3473522869021277e+00  2.2686747096831050e+00  2.1495696125761166e+00  1.9778265881141506e+00  1.7555654688438256e+00  1.5033414922228490e+00  1.2687062797410131e+00  1.1085041125848705e+00  1.0205728875415281e+00  9.5651830006578031e-01  8.9484026975786402e-01  8.3761016270242328e-01  7.7841869205641168e-01  7.1819227569135569e-01  6.7172986846421401e-01  6.6520922393823056e-01  6.9313246508437809e-01  7.4648620008301192e-01  8.2054449358270354e-01  9.1639975925422668e-01  1.0253732532760989e+00  1.1486380131915592e+00  1.2737198154423390e+00  1.3934157913548546e+00  1.5002371622557678e+00  1.6001488031146116e+00  1.6711792801884695e+00  1.7234776971916521e+00  1.7523433565565023e+00  1.7637170769150294e+00  1.7651910672835867e+00  1.9762210274718792e+00  1.9753528996581722e+00  1.9716570370301401e+00  1.9553804989592543e+00  1.9317263027318210e+00  1.8937343607086246e+00  1.8505713577093028e+00  1.8084568938079553e+00  1.7880698242979214e+00  1.8095598252671703e+00  1.8786649613950699e+00  1.9879507656264808e+00  2.1201946425232228e+00  2.2538007075741455e+00  2.3537408939374522e+00  2.4071176614470406e+00  2.4145553233254504e+00  2.3842097538583369e+00  2.3220795650963355e+00  2.2099411884177811e+00  2.0407058804880349e+00  1.8214337493083121e+00  1.5876955852714341e+00  1.3871297937085667e+00  1.2486481306929900e+00  1.1646514181500436e+00  1.0931189395845795e+00  1.0272319145637026e+00  9.6759989320425632e-01  9.1399739125390800e-01  8.6096712908065876e-01  8.0305477806812953e-01  7.4141518310162979e-01  6.9996434824162168e-01  7.1766640055894471e-01  7.7216343391186448e-01  8.6015645662886453e-01  9.7410820174911805e-01  1.1053386046764664e+00  1.2525531002717523e+00  1.3964394542606084e+00  1.5307249865601751e+00  1.6539882459358832e+00  1.7631036476335116e+00  1.8427448912951101e+00  1.8988411518670940e+00  1.9324402112293868e+00  1.9468823927287415e+00  1.9479058210300895e+00  2.1265916331087440e+00  2.1261943677328516e+00  2.1178768826563736e+00  2.0967613094664652e+00  2.0649681121071413e+00  2.0186511221628503e+00  1.9599552267222711e+00  1.8989010453262167e+00  1.8487217339528741e+00  1.8378560263387727e+00  1.8767491046121028e+00  1.9630005732863693e+00  2.0818027162449084e+00  2.2101719669439284e+00  2.3082736446453391e+00  2.3546336759571891e+00  2.3506287328299362e+00  2.3095532553680922e+00  2.2175273517895486e+00  2.0599274211990330e+00  1.8511736131543561e+00  1.6345747243775686e+00  1.4530817748547478e+00  1.3266294514022527e+00  1.2457997226819799e+00  1.1764256344507831e+00  1.1117040610054247e+00  1.0514153963879671e+00  9.9503529069767438e-01  9.4262409645069789e-01  8.9192853983095999e-01  8.4478521150744768e-01  7.9763739005478229e-01  7.4890263784912237e-01  7.4770646972293675e-01  8.0527532381964595e-01  9.0585560714652968e-01  1.0373433104662364e+00  1.1889155461160963e+00  1.3528216194324552e+00  1.5153154821482973e+00  1.6684190704928614e+00  1.8049037613773042e+00  1.9186332039090459e+00  2.0167875068214989e+00  2.0762003087879091e+00  2.1118806037041651e+00  2.1270102484735163e+00  2.1271480449628530e+00  2.2744459633344074e+00  2.2732792374227211e+00  2.2633702122948374e+00  2.2379531091861589e+00  2.1986186020111229e+00  2.1439399390998566e+00  2.0699159752454372e+00  1.9893964278963543e+00  1.9125134338764169e+00  1.8686668172377612e+00  1.8745006125060311e+00  1.9344839776839369e+00  2.0317164147160853e+00  2.1502342189463834e+00  2.2432642161502838e+00  2.2759912281238908e+00  2.2530031341777321e+00  2.1857033724532182e+00  2.0589877573759234e+00  1.8703768678045667e+00  1.6614210895211075e+00  1.4820176414244908e+00  1.3514762348423672e+00  1.2614724367301238e+00  1.1978079819997962e+00  1.1483252666169965e+00  1.1011944260726867e+00  1.0561396207434472e+00  1.0088837028739874e+00  9.6039758427405342e-01  9.1268162802999697e-01  8.6669161602915823e-01  8.2745166176329987e-01  7.9007743352895954e-01  7.8072120106438214e-01  8.4474310495337734e-01  9.5619142587371586e-01  1.0997619780722125e+00  1.2781031047585805e+00  1.4505244242947528e+00  1.6372192453503616e+00  1.8020849037022362e+00  1.9538035488581340e+00  2.0803621411842137e+00  2.1863306195339303e+00  2.2548994497238839e+00  2.2943139111348221e+00  2.3107125592674578e+00  2.3115108666749729e+00  2.4076706228635714e+00  2.4076459264700696e+00  2.3981266397227707e+00  2.3690533504707272e+00  2.3216308415633953e+00  2.2647395201124398e+00  2.1760353330173703e+00  2.0801164686966276e+00  1.9805428819755704e+00  1.9041076000998103e+00  1.8742954995776122e+00  1.9023659233730652e+00  1.9772548861861097e+00  2.0775274780494342e+00  2.1613221334098243e+00  2.1792328848562907e+00  2.1367036086882560e+00  2.0419170081584350e+00  1.8847726789017805e+00  1.6899785925307429e+00  1.5077166204542420e+00  1.3670341126458012e+00  1.2662318917860915e+00  1.1969261521512049e+00  1.1488820846525405e+00  1.1134661953319906e+00  1.0825553122114722e+00  1.0473293329254290e+00  1.0100972905898937e+00  9.6984692004944872e-01  9.2848362369058923e-01  8.8814450368547504e-01  8.5047554879930631e-01  8.2244690631457862e-01  8.1567079241507601e-01  8.8045563864174992e-01  1.0029917081353878e+00  1.1709027200808853e+00  1.3619641599696339e+00  1.5496599707438734e+00  1.7457975428965957e+00  1.9415908730773292e+00  2.0977378222055711e+00  2.2330182590162515e+00  2.3390917920588219e+00  2.4117774039903650e+00  2.4535398799519301e+00  2.4710173583095836e+00  2.4698139393685041e+00  2.5423741623850993e+00  2.5412181473258082e+00  2.5277481860765127e+00  2.4935145235680118e+00  2.4419294999511640e+00  2.3684612137493208e+00  2.2767910669444089e+00  2.1622810862326083e+00  2.0498033042161543e+00  1.9397228644447566e+00  1.8748326880812929e+00  1.8723029471940797e+00  1.9181315384321245e+00  1.9974381985924603e+00  2.0662129748423763e+00  2.0709296756598468e+00  2.0108706369463305e+00  1.8929585197887495e+00  1.7244471919209337e+00  1.5427666385632224e+00  1.3915342161628284e+00  1.2807422703592026e+00  1.2018183997965874e+00  1.1446483398240075e+00  1.1027055255531215e+00  1.0739078492884813e+00  1.0531510598741436e+00  1.0329945915745029e+00  1.0066588204696669e+00  9.7435590831829366e-01  9.3875824261264373e-01  9.0523776409716938e-01  8.7460091489452363e-01  8.5266618965101038e-01  8.5343876147996955e-01  9.2075924994016378e-01  1.0546714535168380e+00  1.2328047977854455e+00  1.4381898614870794e+00  1.6457764782121174e+00  1.8600628988812997e+00  2.0613612707793560e+00  2.2179800159520697e+00  2.3604020373222494e+00  2.4826665035996456e+00  2.55816