<?xml version="1.0"?>
<VTKFile type="UnstructuredGrid"  version="0.1"  >
<UnstructuredGrid>
<Piece  NumberOfPoints="2401" NumberOfCells="4608">
<Points>
<DataArray  type="Float64"  NumberOfComponents="3"  format="ascii">0 0 0  0.001070538380698371 0 0  0.004277569313095364 0 0  0.009607359798386061 0 0  0.01703708685546806 0 0  0.02653493525245065 0 0  0.03806023374436157 0 0  0.05156362923366253 0 0  0.06698729810778931 0 0  0.08426519384873815 0 0  0.1033233298543955 0 0  0.1240800962605269 0 0  0.1464466094067445 0 0  0.1703270924499866 0 0  0.1956192854956637 0 0  0.2222148834902257 0 0  0.2500000000000299 0 0  0.2788556548905322 0 0  0.308658283817491 0 0  0.339280267348458 0 0  0.3705904774487813 0 0  0.4024548389919803 0 0  0.4347369038900211 0 0  0.467298435384978 0 0  0.5000000000000517 0 0  0.5327015646151253 0 0  0.5652630961100813 0 0  0.5975451610081212 0 0  0.6294095225513188 0 0  0.6607197326516399 0 0  0.6913417161826045 0 0  0.7211443451095605 0 0  0.7500000000000597 0 0  0.7777851165098603 0 0  0.8043807145044185 0 0  0.829672907550091 0 0  0.8535533905933287 0 0  0.8759199037395413 0 0  0.8966766701456674 0 0  0.9157348061513193 0 0  0.9330127018922625 0 0  0.9484363707663832 0 0  0.961939766255678 0 0  0.9734650647475827 0 0  0.9829629131445586 0 0  0.9903926402016341 0 0  0.9957224306869181 0 0  0.9989294616193084 0 0  1 0 0  0 0.02083333333333333 0  0.001070538380698371 0.02083333333333333 0  0.004277569313095364 0.02083333333333333 0  0.009607359798386061 0.02083333333333333 0  0.01703708685546806 0.02083333333333333 0  0.02653493525245065 0.02083333333333333 0  0.03806023374436157 0.02083333333333333 0  0.05156362923366253 0.02083333333333333 0  0.06698729810778931 0.02083333333333333 0  0.08426519384873815 0.02083333333333333 0  0.1033233298543955 0.02083333333333333 0  0.1240800962605269 0.02083333333333333 0  0.1464466094067445 0.02083333333333333 0  0.1703270924499866 0.02083333333333333 0  0.1956192854956637 0.02083333333333333 0  0.2222148834902257 0.02083333333333333 0  0.2500000000000299 0.02083333333333333 0  0.2788556548905322 0.02083333333333333 0  0.308658283817491 0.02083333333333333 0  0.339280267348458 0.02083333333333333 0  0.3705904774487813 0.02083333333333333 0  0.4024548389919803 0.02083333333333333 0  0.4347369038900211 0.02083333333333333 0  0.467298435384978 0.02083333333333333 0  0.5000000000000517 0.02083333333333333 0  0.5327015646151253 0.02083333333333333 0  0.5652630961100813 0.02083333333333333 0  0.5975451610081212 0.02083333333333333 0  0.6294095225513188 0.02083333333333333 0  0.6607197326516399 0.02083333333333333 0  0.6913417161826045 0.02083333333333333 0  0.7211443451095605 0.02083333333333333 0  0.7500000000000597 0.02083333333333333 0  0.7777851165098603 0.02083333333333333 0  0.8043807145044185 0.02083333333333333 0  0.829672907550091 0.02083333333333333 0  0.8535533905933287 0.02083333333333333 0  0.8759199037395413 0.02083333333333333 0  0.8966766701456674 0.02083333333333333 0  0.9157348061513193 0.02083333333333333 0  0.9330127018922625 0.02083333333333333 0  0.9484363707663832 0.02083333333333333 0  0.961939766255678 0.02083333333333333 0  0.9734650647475827 0.02083333333333333 0  0.9829629131445586 0.02083333333333333 0  0.9903926402016341 0.02083333333333333 0  0.9957224306869181 0.02083333333333333 0  0.9989294616193084 0.02083333333333333 0  1 0.02083333333333333 0  0 0.04166666666666666 0  0.001070538380698371 0.04166666666666666 0  0.004277569313095364 0.04166666666666666 0  0.009607359798386061 0.04166666666666666 0  0.01703708685546806 0.04166666666666666 0  0.02653493525245065 0.04166666666666666 0  0.03806023374436157 0.04166666666666666 0  0.05156362923366253 0.04166666666666666 0  0.06698729810778931 0.04166666666666666 0  0.08426519384873815 0.04166666666666666 0  0.1033233298543955 0.04166666666666666 0  0.1240800962605269 0.04166666666666666 0  0.1464466094067445 0.04166666666666666 0  0.1703270924499866 0.04166666666666666 0  0.1956192854956637 0.04166666666666666 0  0.2222148834902257 0.04166666666666666 0  0.2500000000000299 0.04166666666666666 0  0.2788556548905322 0.04166666666666666 0  0.308658283817491 0.04166666666666666 0  0.339280267348458 0.04166666666666666 0  0.3705904774487813 0.04166666666666666 0  0.4024548389919803 0.04166666666666666 0  0.4347369038900211 0.04166666666666666 0  0.467298435384978 0.04166666666666666 0  0.5000000000000517 0.04166666666666666 0  0.5327015646151253 0.04166666666666666 0  0.5652630961100813 0.04166666666666666 0  0.5975451610081212 0.04166666666666666 0  0.6294095225513188 0.04166666666666666 0  0.6607197326516399 0.04166666666666666 0  0.6913417161826045 0.04166666666666666 0  0.7211443451095605 0.04166666666666666 0  0.7500000000000597 0.04166666666666666 0  0.7777851165098603 0.04166666666666666 0  0.8043807145044185 0.04166666666666666 0  0.829672907550091 0.04166666666666666 0  0.8535533905933287 0.04166666666666666 0  0.8759199037395413 0.04166666666666666 0  0.8966766701456674 0.04166666666666666 0  0.9157348061513193 0.04166666666666666 0  0.9330127018922625 0.04166666666666666 0  0.9484363707663832 0.04166666666666666 0  0.961939766255678 0.04166666666666666 0  0.9734650647475827 0.04166666666666666 0  0.9829629131445586 0.04166666666666666 0  0.9903926402016341 0.04166666666666666 0  0.9957224306869181 0.04166666666666666 0  0.9989294616193084 0.04166666666666666 0  1 0.04166666666666666 0  0 0.0625 0  0.001070538380698371 0.0625 0  0.004277569313095364 0.0625 0  0.009607359798386061 0.0625 0  0.01703708685546806 0.0625 0  0.02653493525245065 0.0625 0  0.03806023374436157 0.0625 0  0.05156362923366253 0.0625 0  0.06698729810778931 0.0625 0  0.08426519384873815 0.0625 0  0.1033233298543955 0.0625 0  0.1240800962605269 0.0625 0  0.1464466094067445 0.0625 0  0.1703270924499866 0.0625 0  0.1956192854956637 0.0625 0  0.2222148834902257 0.0625 0  0.2500000000000299 0.0625 0  0.2788556548905322 0.0625 0  0.308658283817491 0.0625 0  0.339280267348458 0.0625 0  0.3705904774487813 0.0625 0  0.4024548389919803 0.0625 0  0.4347369038900211 0.0625 0  0.467298435384978 0.0625 0  0.5000000000000517 0.0625 0  0.5327015646151253 0.0625 0  0.5652630961100813 0.0625 0  0.5975451610081212 0.0625 0  0.6294095225513188 0.0625 0  0.6607197326516399 0.0625 0  0.6913417161826045 0.0625 0  0.7211443451095605 0.0625 0  0.7500000000000597 0.0625 0  0.7777851165098603 0.0625 0  0.8043807145044185 0.0625 0  0.829672907550091 0.0625 0  0.8535533905933287 0.0625 0  0.8759199037395413 0.0625 0  0.8966766701456674 0.0625 0  0.9157348061513193 0.0625 0  0.9330127018922625 0.0625 0  0.9484363707663832 0.0625 0  0.961939766255678 0.0625 0  0.9734650647475827 0.0625 0  0.9829629131445586 0.0625 0  0.9903926402016341 0.0625 0  0.9957224306869181 0.0625 0  0.9989294616193084 0.0625 0  1 0.0625 0  0 0.08333333333333333 0  0.001070538380698371 0.08333333333333333 0  0.004277569313095364 0.08333333333333333 0  0.009607359798386061 0.08333333333333333 0  0.01703708685546806 0.08333333333333333 0  0.02653493525245065 0.08333333333333333 0  0.03806023374436157 0.08333333333333333 0  0.05156362923366253 0.08333333333333333 0  0.06698729810778931 0.08333333333333333 0  0.08426519384873815 0.08333333333333333 0  0.1033233298543955 0.08333333333333333 0  0.1240800962605269 0.08333333333333333 0  0.1464466094067445 0.08333333333333333 0  0.1703270924499866 0.08333333333333333 0  0.1956192854956637 0.08333333333333333 0  0.2222148834902257 0.08333333333333333 0  0.2500000000000299 0.08333333333333333 0  0.2788556548905322 0.08333333333333333 0  0.308658283817491 0.08333333333333333 0  0.339280267348458 0.08333333333333333 0  0.3705904774487813 0.08333333333333333 0  0.4024548389919803 0.08333333333333333 0  0.4347369038900211 0.08333333333333333 0  0.467298435384978 0.08333333333333333 0  0.5000000000000517 0.08333333333333333 0  0.5327015646151253 0.08333333333333333 0  0.5652630961100813 0.08333333333333333 0  0.5975451610081212 0.08333333333333333 0  0.6294095225513188 0.08333333333333333 0  0.6607197326516399 0.08333333333333333 0  0.6913417161826045 0.08333333333333333 0  0.7211443451095605 0.08333333333333333 0  0.7500000000000597 0.08333333333333333 0  0.7777851165098603 0.08333333333333333 0  0.8043807145044185 0.08333333333333333 0  0.829672907550091 0.08333333333333333 0  0.8535533905933287 0.08333333333333333 0  0.8759199037395413 0.08333333333333333 0  0.8966766701456674 0.08333333333333333 0  0.9157348061513193 0.08333333333333333 0  0.9330127018922625 0.08333333333333333 0  0.9484363707663832 0.08333333333333333 0  0.961939766255678 0.08333333333333333 0  0.9734650647475827 0.08333333333333333 0  0.9829629131445586 0.08333333333333333 0  0.9903926402016341 0.08333333333333333 0  0.9957224306869181 0.08333333333333333 0  0.9989294616193084 0.08333333333333333 0  1 0.08333333333333333 0  0 0.1041666666666667 0  0.001070538380698371 0.1041666666666667 0  0.004277569313095364 0.1041666666666667 0  0.009607359798386061 0.1041666666666667 0  0.01703708685546806 0.1041666666666667 0  0.02653493525245065 0.1041666666666667 0  0.03806023374436157 0.1041666666666667 0  0.05156362923366253 0.1041666666666667 0  0.06698729810778931 0.1041666666666667 0  0.08426519384873815 0.1041666666666667 0  0.1033233298543955 0.1041666666666667 0  0.1240800962605269 0.1041666666666667 0  0.1464466094067445 0.1041666666666667 0  0.1703270924499866 0.1041666666666667 0  0.1956192854956637 0.1041666666666667 0  0.2222148834902257 0.1041666666666667 0  0.2500000000000299 0.1041666666666667 0  0.2788556548905322 0.1041666666666667 0  0.308658283817491 0.1041666666666667 0  0.339280267348458 0.1041666666666667 0  0.3705904774487813 0.1041666666666667 0  0.4024548389919803 0.1041666666666667 0  0.4347369038900211 0.1041666666666667 0  0.467298435384978 0.1041666666666667 0  0.5000000000000517 0.1041666666666667 0  0.5327015646151253 0.1041666666666667 0  0.5652630961100813 0.1041666666666667 0  0.5975451610081212 0.1041666666666667 0  0.62
[...]
<PointData  Scalars="f_11969631"> 
<DataArray  type="Float64"  Name="f_11969631"  format="ascii">1.0011493370762610e+00  1.0016034816125741e+00  1.0027585273418307e+00  1.0033860083392321e+00  1.0025903166494621e+00  1.0002269844606979e+00  9.9669357963091565e-01  9.9447464232151306e-01  9.9833564980446265e-01  1.0148175738555785e+00  1.0542784891820267e+00  1.1232022149052541e+00  1.2268692323362915e+00  1.3586690541387896e+00  1.5245557005736625e+00  1.6975334356203702e+00  1.8920654535903814e+00  2.0551258119655973e+00  2.2538377460992489e+00  2.4272260340043128e+00  2.5908512087178281e+00  2.7143636368136894e+00  2.8297621932602941e+00  2.9230975429181165e+00  2.9686566417881641e+00  2.9645428993819358e+00  2.9398733388794867e+00  2.8642966179629212e+00  2.7467495400966899e+00  2.5849298108848449e+00  2.3755040884307843e+00  2.1597323395879577e+00  1.9499133195947147e+00  1.7303930374358627e+00  1.5306655615437514e+00  1.3646345294792910e+00  1.2408256686202095e+00  1.1569702652074252e+00  1.0984799068888778e+00  1.0593989568571069e+00  1.0338160497261744e+00  1.0164220580873822e+00  1.0064413328835484e+00  1.0015127325646001e+00  9.9917505837658260e-01  9.9843967266244937e-01  9.9872640246302080e-01  9.9927554013463837e-01  9.9945522008549348e-01  9.9751070171120004e-01  9.9753868207641938e-01  9.9509768965541856e-01  9.8839904796587963e-01  9.7672968600068755e-01  9.6096383827082832e-01  9.4422293588950812e-01  9.3108298409139567e-01  9.2692384701655073e-01  9.4042090076756668e-01  9.8222336195695747e-01  1.0512327190515907e+00  1.1561161524593069e+00  1.2799495998269215e+00  1.4377040337839213e+00  1.6082682702203599e+00  1.7918641289283928e+00  1.9540712894100929e+00  2.1161618657401253e+00  2.2784026524347656e+00  2.4326359818082826e+00  2.5606805425933308e+00  2.6594882490048866e+00  2.7428090414361592e+00  2.7884733110758986e+00  2.7954847220234886e+00  2.7710839912551299e+00  2.7094205282856909e+00  2.5979464860726091e+00  2.4520161762461252e+00  2.2719288764508341e+00  2.0776963670543078e+00  1.8800172941115054e+00  1.6857346006798828e+00  1.5206876718830646e+00  1.3906741231230766e+00  1.2955918064543126e+00  1.2247601190932520e+00  1.1748891441577536e+00  1.1366888335442422e+00  1.1063471483637934e+00  1.0807887643526144e+00  1.0580792278777131e+00  1.0380739531303325e+00  1.0219829484380349e+00  1.0107319276573175e+00  1.0041297278760524e+00  1.0015683828091759e+00  1.0011937145420573e+00  9.8604287516434874e-01  9.8584826742766929e-01  9.8068002740551430e-01  9.6782988798551561e-01  9.4704985496212601e-01  9.2104582526641809e-01  8.9460823672083978e-01  8.7113143440672203e-01  8.5612209484010582e-01  8.5977695911553376e-01  8.9252465493178512e-01  9.5604922490742050e-01  1.0459848831968757e+00  1.1638244155954971e+00  1.2948036760648400e+00  1.4540664076968342e+00  1.6199936376382646e+00  1.7795384640537151e+00  1.9208093393069949e+00  2.0753347283376709e+00  2.2040856247274365e+00  2.3238490760232255e+00  2.4128397200946416e+00  2.4944022879572905e+00  2.5379289730085328e+00  2.5493745428172003e+00  2.5305389166842058e+00  2.4745522705670986e+00  2.3759727942940221e+00  2.2466764083527457e+00  2.0904549304364375e+00  1.9275716875273339e+00  1.7694123162083928e+00  1.6316547859901276e+00  1.5281057433959671e+00  1.4528523082563813e+00  1.3939026807641144e+00  1.3429426578281487e+00  1.2944713286089828e+00  1.2475095416325825e+00  1.2017169290933249e+00  1.1579067478058405e+00  1.1168736835128945e+00  1.0815175507065913e+00  1.0527550130388108e+00  1.0312814223334026e+00  1.0178157459248860e+00  1.0114849247460229e+00  1.0108326141026607e+00  9.7337869102954111e-01  9.7279747097299385e-01  9.6609056492405632e-01  9.5136398633604913e-01  9.2652849377190638e-01  8.9422517678917035e-01  8.6113146504881855e-01  8.3273937377666463e-01  8.1313999926422076e-01  8.0892459368210823e-01  8.3008029793555471e-01  8.8022528994603488e-01  9.5441739139852777e-01  1.0516306053501208e+00  1.1671024360355737e+00  1.2951732214669340e+00  1.4445850768065809e+00  1.5946999784239262e+00  1.7251185384759429e+00  1.8534228823984411e+00  1.9783690233203637e+00  2.0889694490169912e+00  2.1883483876723235e+00  2.2507402809341550e+00  2.2955020075052701e+00  2.3143675668572148e+00  2.3018718598000936e+00  2.2598606712690672e+00  2.1766566305647110e+00  2.0641265179070052e+00  1.9412914730501958e+00  1.8229807133840432e+00  1.7262356820541409e+00  1.6546546706259946e+00  1.6029260220512422e+00  1.5587380050236013e+00  1.5118368013053614e+00  1.4597348438147171e+00  1.4022548925807634e+00  1.3418565002941933e+00  1.2810095852780772e+00  1.2211588761625074e+00  1.1661827772046773e+00  1.1179540566072026e+00  1.0791867091504643e+00  1.0501492798448600e+00  1.0334154415516297e+00  1.0265441634511927e+00  1.0258622704147349e+00  9.6260947029139088e-01  9.6196395659410017e-01  9.5509111069870201e-01  9.3887566355856678e-01  9.1262782315769408e-01  8.7827728623556767e-01  8.4103670783052975e-01  8.0807192833121966e-01  7.8425860605405218e-01  7.7405980934185792e-01  7.8411878239065180e-01  8.1823364097049545e-01  8.7726647805357594e-01  9.5554551440292845e-01  1.0520229733327990e+00  1.1618426220542708e+00  1.2825942904416840e+00  1.4087421008896306e+00  1.5323453595687062e+00  1.6436627310362228e+00  1.7623131595253356e+00  1.8707425428855600e+00  1.9653589096932333e+00  2.0298671215881292e+00  2.0680791833938375e+00  2.1011155470075695e+00  2.0976331764420459e+00  2.0557743277398646e+00  1.9992454085206102e+00  1.9247551799082470e+00  1.8509780694635507e+00  1.7958529457126400e+00  1.7616436247359379e+00  1.7384006914343588e+00  1.7139253729693480e+00  1.6785051733187384e+00  1.6301962930936029e+00  1.5702214413768434e+00  1.5018239468339181e+00  1.4279436463994182e+00  1.3510771378562276e+00  1.2754545344460329e+00  1.2071325844930028e+00  1.1485364745291811e+00  1.1016281392373359e+00  1.0695716528182548e+00  1.0496199053822917e+00  1.0428098362858198e+00  1.0419396631273794e+00  9.5531743319295892e-01  9.5485860689552038e-01  9.4818846888125541e-01  9.3172796773462596e-01  9.0495443711248891e-01  8.7053973417735642e-01  8.3247148715949415e-01  7.9579657612365240e-01  7.6778018977147677e-01  7.5234127033407194e-01  7.5269165960459206e-01  7.7385071833610120e-01  8.1480363446062531e-01  8.7467658763850731e-01  9.4631839019417929e-01  1.0344201905837711e+00  1.1338344708717227e+00  1.2485077077428961e+00  1.3616942472036120e+00  1.4531093659555601e+00  1.5596874559825114e+00  1.6655412516052650e+00  1.7441741018288979e+00  1.8163627571817309e+00  1.8762614928169561e+00  1.9070631039162838e+00  1.9124277383416735e+00  1.8913684298221856e+00  1.8648149948314432e+00  1.8473907247327324e+00  1.8382897683135846e+00  1.8431440614874415e+00  1.8518364132799798e+00  1.8521872706639595e+00  1.8355257425711020e+00  1.8000969362792367e+00  1.7453621294739661e+00  1.6743646958938567e+00  1.5918191402799597e+00  1.5025008749429281e+00  1.4105959365722525e+00  1.3181374484810799e+00  1.2383464692379336e+00  1.1717242812507591e+00  1.1197011444513736e+00  1.0866044571742826e+00  1.0662206447730112e+00  1.0574968122710671e+00  1.0571246385424078e+00  9.5283367654139306e-01  9.5212216325385823e-01  9.4606493012417048e-01  9.2927024111107892e-01  9.0367122836054614e-01  8.6989890286200711e-01  8.3255829146435434e-01  7.9431826952878626e-01  7.6149689128433784e-01  7.4039834037192598e-01  7.3298473811839837e-01  7.4079412584124138e-01  7.6721721559852440e-01  8.0579838135145188e-01  8.6237803425882131e-01  9.3843617948998526e-01  1.0206622149558768e+00  1.1027961181139669e+00  1.2007509531095919e+00  1.2940196075008592e+00  1.3712180215511733e+00  1.4585673183427468e+00  1.5465801569248467e+00  1.6197532479703300e+00  1.6866110305823119e+00  1.7286294350887228e+00  1.7541244565698151e+00  1.7768741800870835e+00  1.8058704157830170e+00  1.8460426274847253e+00  1.8910193732840399e+00  1.9339608730825499e+00  1.9648743199677945e+00  1.9744382761671835e+00  1.9583492901473105e+00  1.9165000628467930e+00  1.8520080431527099e+00  1.7674979214690250e+00  1.6702299604878965e+00  1.5639267530240524e+00  1.4553320104592582e+00  1.3550640188912166e+00  1.2645578791480929e+00  1.1902480373245858e+00  1.1352656193331652e+00  1.0993934077341119e+00  1.0794876798669539e+00  1.0707191134473382e+00  1.0701743988515335e+00  9.5376754679881881e-01  9.5322700793782289e-01  9.4684561473887485e-01  9.3193054817903809e-01  9.0718614812304110e-01  8.7669813793055684e-01  8.4088185006877725e-01  8.0267525265771011e-01  7.6472028340475229e-01  7.3662231173721548e-01  7.2134375338305834e-01  7.1741308887906818e-01  7.3041721853133801e-01  7.5654313182436594e-01  7.9724529759157425e-01  8.5152399698424253e-01  9.1600143386786204e-01  9.8689664980936964e-01  1.0703858228978003e+00  1.1554105687989698e+00  1.2234688018679616e+00  1.2974373159285182e+00  1.3738728246517971e+00  1.4519544231232047e+00  1.5169692582328771e+00  1.5841660231837791e+00  1.6514043980602913e+00  1.7279026408897979e+00  1.8096528042646587e+00  1.8936932406644467e+00  1.9743026367675236e+00  2.0403687676869189e+00  2.0820574169679937e+00  2.0948952985609588e+00  2.0762948568947719e+00  2.0254446074573251e+00  1.9470457154523371e+00  1.8493139723214531e+00  1.7330631095696676e+00  1.6110622035033135e+00  1.4898006847845122e+00  1.3790528051326629e+00  1.2841139192776689e+00  1.2059761536782745e+00  1.1480692514523629e+00  1.1134395902716820e+00  1.0921879318727314e+00  1.0837795797950820e+00  1.0829924464724334e+00  9.5466725032101596e-01  9.5417552651215154e-01  9.4869468393006207e-01  9.3555269012091791e-01  9.1546504113792648e-01  8.8844373841541213e-01  8.5785734871591313e-01  8.2230573759395742e-01  7.7987371001143768e-01  7.4168846295083912e-01  7.1637604475622840e-01  7.0146776616376338e-01  7.0167775957795164e-01  7.1858272800248246e-01  7.4662385598124381e-01  7.8614654234600134e-01  8.3648650726817986e-01  8.9346328493861682e-01  9.6113334762425118e-01  1.0365089920332378e+00  1.1067602113509609e+00  1.1714931583638961e+00  1.2415879838126525e+00  1.3176554299274705e+00  1.4036644454212805e+00  1.4971003526345061e+00  1.6072937517360184e+00  1.7266060368703757e+00  1.8462782975200889e+00  1.9615306478763865e+00  2.0641656560164989e+00  2.1440674951381555e+00  2.1934733813514522e+00  2.2053909311611251e+00  2.1812058302654038e+00  2.1216450309201278e+00  2.0308096425913114e+00  1.9150924600142063e+00  1.7828550291428946e+00  1.6442969723527108e+00  1.5138610018960914e+00  1.3968625171668312e+00  1.2991646343877288e+00  1.2194114473200557e+00  1.1591806600032635e+00  1.1222093216872382e+00  1.1034220370695256e+00  1.0953144221730300e+00  1.0951457586520705e+00  9.5567970478934694e-01  9.5520297427514900e-01  9.5053239439091963e-01  9.4044545390640466e-01  9.2444372681552989e-01  9.0266920562234187e-01  8.7916553877483306e-01  8.5034712036694526e-01  8.0938712412655311e-01  7.5938245363928980e-01  7.1896568801403937e-01  6.9155424252482101e-01  6.7884124314180150e-01  6.8758759405318071e-01  7.1016531896366053e-01  7.4304425198303015e-01  7.8166382582387728e-01  8.2448064356217887e-01  8.7982814837501422e-01  9.4027185427507864e-01  1.0058894529643538e+00  1.0718611677540302e+00  1.1422869280066075e+00  1.2254832749631388e+00  1.3276440011618686e+00  1.4524457474058923e+00  1.5898369448658474e+00  1.7398095383364194e+00  1.8898792899748209e+00  2.0324845269284371e+00  2.1538316997177800e+00  2.2385356008820119e+00  2.2897774618154698e+00  2.3026458505229845e+00  2.2752736786145045e+00  2.2043183070001393e+00  2.0982370167311561e+00  1.9637843079805142e+00  1.8162177988960126e+00  1.6675443127131420e+00  1.5282220984796808e+00  1.4095495103777438e+00  1.3093924420082317e+00  1.2317723426372054e+00  1.1721034545309346e+00  1.1333221615163724e+00  1.1129244973999735e+00  1.1049188478638727e+00  1.1047931689627148e+00  9.5781462535142259e-01  9.5725951643851426e-01  9.5326415345651916e-01  9.4591032823802390e-01  9.3373123560111038e-01  9.1799306329990249e-01  9.0079018421428669e-01  8.8144013089677342e-01  8.4917834322090879e-01  7.9438874143157889e-01  7.3434715569815867e-01  6.8770926778500274e-01  6.6089481224568492e-01  6.6178224523732121e-01  6.8610145580373194e-01  7.1297465821837724e-01  7.4503047845799542e-01  7.8306464712985036e-01  8.2752395645160060e-01  8.8065793913669732e-01  9.3746181582883348e-01  9.9878905104773541e-01  1.0760260268617114e+00  1.1655268257798326e+00  1.2800300780063205e+00  1.4133558889548823e+00  1.5637394942408247e+00  1.7259613023779536e+00  1.8931671146935136e+00  2.0603849198202315e+00  2.2110824817454660e+00  2.3221722869846455e+00  2.3794668670728001e+00  2.3897574281465293e+00  2.3571705152764677e+00  2.2771309662363906e+00  2.1523858423466913e+00  1.9978406646654077e+00  1.8393874660040035e+00  1.6802202265543771e+00  1.5390075546199271e+00  1.4163872362195766e+00  1.3189796065190373e+00  1.2409742746897305e+00  1.1819610932587339e+00  1.1460736462235794e+00  1.1252811002879206e+00  1.1167203652334203e+00  1.1161447417772452e+00  9.6119567311138976e-01  9.6099434354460045e-01  9.5823225139592483e-01  9.5192228870646789e-01  9.4365128451830149e-01  9.3301437776307772e-01  9.2351547729433137e-01  9.1183051843995355e-01  8.9048251667855194e-01  8.4227756860886904e-01  7.6920764148023524e-01  6.9571913451173906e-01  6.4714900620881655e-01  6.4126270832656163e-01  6.6654171099441983e-01  7.0059521849856277e-01  7.3181538801913337e-01  7.6793640715790967e-01  8.1061496143884693e-01  8.5807070778788819e-01  9.1248672085396509e-01  9.6946377420260577e-01  1.0407249421358062e+00  1.1285631949721655e+00  1.2356221091930397e+00  1.3643517896126272e+00  1.5092007928510194e+00  1.6716610883454259e+00  1.8491010999756823e+00  2.0295672701766887e+00  2.2108179076085261e+00  2.3628077878174745e+00  2.4560212666811463e+00  2.4721364351650528e+00  2.4342467824590828e+00  2.3340698861576019e+00  2.1943089566486473e+00  2.0258852593843777e+00  1.8554359650609640e+00  1.6887742498939884e+00  1.5442840977415484e+00  1.4226584086840615e+00  1.3265042906972051e+00  1.2471745509313281e+00  1.1960210092611718e+00  1.1578753428356205e+00  1.1378129856026673e+00  1.1305421273660241e+00  1.1297746938618134e+00  9.6619299537404413e-01  9.6584885211210869e-01  9.6421932060113924e-01  9.5965374051290320e-01  9.5444920560545488e-01  9.4840750182125089e-01  9.4459264160937750e-01  9.4240878451579835e-01  9.3367110379576213e-01  8.9473638602819283e-01  8.1894962198318166e-01  7.2534645407069354e-01  6.4350225622255985e-01  6.2278446303936663e-01  6.5440817425680331e-01  6.9789970850516592e-01  7.3976586736381966e-01  7.8283143833456037e-01  8.3075490419932052e-01  8.7512197177825557e-01  9.1836129642178910e-01  9.6352014248230122e-01  1.0186321235597311e+00  1.0921054520736344e+00  1.1884422378392505e+00  1.3041414316516802e+00  1.4412228863251886e+00  1.5952997275435559e+00  1.7674120926600043e+00  1.9554220665841899e+00  2.1496229612140008e+00  2.3396254879099079e+00  2.4929918265010889e+00  2.5402918491296007e+00  2.4919933414901769e+00  2.3772564257626456e+00  2.2198634905823584e+00  2.0422491779615468e+00  1.8653831133107033e+00  1.6955015257195702e+00  1.5484507112381773e+00  1.4285816870527801e+00  1.3328764806713238e+00  1.2556058728829873e+00  1.2051959805784884e+00  1.1726253139234619e+00  1.1538808679688983e+00  1.1456704299548908e+00  1.1450535858437083e+00  9.7325072929365686e-01  9.7306353813357771e-01  9.7165184531861826e-01  9.6886243914243231e-01  9.6586309023859218e-01  9.6394508041785998e-01  9.6496873006786388e-01  9.7023703170070286e-01  9.7196280496126131e-01  9.4939448658331649e-01  8.7777100757863635e-01  7.7217710362335434e-01  6.6108449718728712e-01  6.0630916563106374e-01  6.4806142544861289e-01  7.0628154860173376e-01  7.6173801120940987e-01  8.2102175152642876e-01  8.7415019586110143e-01  9.0928382995076940e-01  9.3295308046490977e-01  9.5972245569859238e-01  1.0001054182547111e+00  1.0609224233955414e+00  1.1415828353509672e+00  1.2436207606956462e+00  1.3672317690718319e+00  1.5137632572504094e+00  1.6793524470999412e+00  1.8607800740258882e+00  2.0595482175082163e+00  2.2589676579135136e+00  2.4543673843057259e+00  2.5787912570182452e+00  2.5284820551104952e+00  2.4041110820482987e+00  2.2352065078160934e+00  2.0486647344103051e+00  1.8682854585459487e+00  1.6941141157568913e+00  1.5499765857065089e+00  1.4332430740126634e+00  1.3401327650360639e+00  1.2684354492371732e+00  1.2126612159396382e+00  1.1829012064622237e+00  1.1652151168255893e+00  1.1583376225738908e+00  1.1586281792484117e+00  9.8219660922901464e-01  9.8209118472826007e-01  9.8140274745253475e-01  9.8003461574218742e-01  9.7925905569983840e-01  9.8049915892960993e-01  9.8581915519524632e-01  9.9628217266858954e-01  1.0090486302552613e+00  9.9993181237314921e-01  9.4451797638054602e-01  8.3040498736463775e-01  7.0176443252889564e-01  6.0222648676587431e-01  6.4491438966973447e-01  7.2319923727909896e-01  7.9549879733679218e-01  8.6958760169101701e-01  9.2132770495661453e-01  9.3717276738296995e-01  9.4152657751473601e-01  9.5562518570109534e-01  9.8803077398579675e-01  1.0379612358933732e+00  1.1043452012604569e+00  1.1899702687363920e+00  1.2970442345967124e+00  1.4292989980303414e+00  1.5876061734290157e+00  1.7628347629444574e+00  1.9555919073055212e+00  2.1618027831837825e+00  2.3669370452655261e+00  2.5487414510251778e+00  2.5449275952222670e+00  2.4073774702841884e+00  2.2375534275354028e+00  2.0540435517261071e+00  1.8576240754690754e+00  1.6991093571163780e+00  1.5452216898548241e+00  1.4315355087982196e+00  1.3409923670829194e+00  1.2761635791143400e+00  1.2247436930512505e+00  1.1926003420823710e+00  1.1755559976096002e+00  1.1688844659952218e+00  1.1684046538634865e+00  9.9269109894193008e-01  9.9260561855096996e-01  9.9223176644250466e-01  9.9216500129043317e-01  9.9329488696646839e-01  9.9715420464283100e-01  1.0068923929188827e+00  1.0226639859558073e+00  1.0431080809145863e+00  1.0537469667154349e+00  1.0072939564637216e+00  9.0328437344264489e-01  7.5903002181296608e-01  6.2528132361298716e-01  6.4229392221876369e-01  7.4623455708358177e-01  8.3781375068119179e-01  9.2194791160232481e-01  9.6029781534280256e-01  9.5553536195072952e-01  9.4688003806460941e-01  9.5546205915779292e-01  9.8161018489235563e-01  1.0213160180431275e+00  1.0736942526401938e+00  1.1426348792836376e+00  1.2337785096751039e+00  1.3504111420220319e+00  1.4940732244384305e+00  1.6630449552420234e+00  1.8492394259231808e+00  2.0501815464652147e+00  2.2674583330317026e+00  2.4633973774950007e+00  2.5323619722185025e+00  2.4013540751732356e+00  2.2284690641910929e+00  2.0354402553523641e+00  1.8497541545619822e+00  1.6898004938215931e+00  1.5448693269407257e+00  1.4242263293450730e+00  1.3424746365887961e+00  1.2767170449556904e+00  1.2314880316124426e+00  1.2032940607633720e+00  1.1877092914954155e+00  1.1810136774969373e+00  1.1816218367225835e+00  1.0041931630893417e+00  1.0041256182833440e+00  1.0043666001465241e+00  1.0055812456250570e+00  1.0087424394026498e+00  1.0153864204186211e+00  1.0276262904151736e+00  1.0480007581632433e+00  1.0747455730789734e+00  1.1011628845144152e+00  1.0784192831288033e+00  9.8009883363230355e-01  8.3110265813818851e-01  6.7328744608850932e-01  6.4619787073504864e-01  7.7353759731642191e-01  8.8642166063261640e-01  9.7172493173143326e-01  9.9006518024006673e-01  9.6702537447441639e-01  9.5210772914662978e-01  9.5758570631109508e-01  9.7784385581813504e-01  1.0090680722827254e+00  1.0506445538138853e+00  1.1047210031750212e+00  1.1769810438860369e+00  1.2766159800116019e+00  1.4039654013934140e+00  1.5642353110263048e+00  1.7461054652952701e+00  1.9384395354770887e+00  2.1544206905622021e+00  2.3602027674061246e+00  2.4804945185723497e+00  2.3872045235200914e+00  2.2109184835066271e+00  2.0166001722795417e+00  1.8281472424536631e+00  1.6699860289094315e+00  1.5322571089313570e+00  1.4195058032200170e+00  1.3413591517737551e+00  1.2800553650664772e+00  1.2337298106346406e+00  1.20756