<?xml version="1.0"?>
<VTKFile type="UnstructuredGrid"  version="0.1"  >
<UnstructuredGrid>
<Piece  NumberOfPoints="2401" NumberOfCells="4608">
<Points>
<DataArray  type="Float64"  NumberOfComponents="3"  format="ascii">0 0 0  0.001070538380698371 0 0  0.004277569313095364 0 0  0.009607359798386061 0 0  0.01703708685546806 0 0  0.02653493525245065 0 0  0.03806023374436157 0 0  0.05156362923366253 0 0  0.06698729810778931 0 0  0.08426519384873815 0 0  0.1033233298543955 0 0  0.1240800962605269 0 0  0.1464466094067445 0 0  0.1703270924499866 0 0  0.1956192854956637 0 0  0.2222148834902257 0 0  0.2500000000000299 0 0  0.2788556548905322 0 0  0.308658283817491 0 0  0.339280267348458 0 0  0.3705904774487813 0 0  0.4024548389919803 0 0  0.4347369038900211 0 0  0.467298435384978 0 0  0.5000000000000517 0 0  0.5327015646151253 0 0  0.5652630961100813 0 0  0.5975451610081212 0 0  0.6294095225513188 0 0  0.6607197326516399 0 0  0.6913417161826045 0 0  0.7211443451095605 0 0  0.7500000000000597 0 0  0.7777851165098603 0 0  0.8043807145044185 0 0  0.829672907550091 0 0  0.8535533905933287 0 0  0.8759199037395413 0 0  0.8966766701456674 0 0  0.9157348061513193 0 0  0.9330127018922625 0 0  0.9484363707663832 0 0  0.961939766255678 0 0  0.9734650647475827 0 0  0.9829629131445586 0 0  0.9903926402016341 0 0  0.9957224306869181 0 0  0.9989294616193084 0 0  1 0 0  0 0.02083333333333333 0  0.001070538380698371 0.02083333333333333 0  0.004277569313095364 0.02083333333333333 0  0.009607359798386061 0.02083333333333333 0  0.01703708685546806 0.02083333333333333 0  0.02653493525245065 0.02083333333333333 0  0.03806023374436157 0.02083333333333333 0  0.05156362923366253 0.02083333333333333 0  0.06698729810778931 0.02083333333333333 0  0.08426519384873815 0.02083333333333333 0  0.1033233298543955 0.02083333333333333 0  0.1240800962605269 0.02083333333333333 0  0.1464466094067445 0.02083333333333333 0  0.1703270924499866 0.02083333333333333 0  0.1956192854956637 0.02083333333333333 0  0.2222148834902257 0.02083333333333333 0  0.2500000000000299 0.02083333333333333 0  0.2788556548905322 0.02083333333333333 0  0.308658283817491 0.02083333333333333 0  0.339280267348458 0.02083333333333333 0  0.3705904774487813 0.02083333333333333 0  0.4024548389919803 0.02083333333333333 0  0.4347369038900211 0.02083333333333333 0  0.467298435384978 0.02083333333333333 0  0.5000000000000517 0.02083333333333333 0  0.5327015646151253 0.02083333333333333 0  0.5652630961100813 0.02083333333333333 0  0.5975451610081212 0.02083333333333333 0  0.6294095225513188 0.02083333333333333 0  0.6607197326516399 0.02083333333333333 0  0.6913417161826045 0.02083333333333333 0  0.7211443451095605 0.02083333333333333 0  0.7500000000000597 0.02083333333333333 0  0.7777851165098603 0.02083333333333333 0  0.8043807145044185 0.02083333333333333 0  0.829672907550091 0.02083333333333333 0  0.8535533905933287 0.02083333333333333 0  0.8759199037395413 0.02083333333333333 0  0.8966766701456674 0.02083333333333333 0  0.9157348061513193 0.02083333333333333 0  0.9330127018922625 0.02083333333333333 0  0.9484363707663832 0.02083333333333333 0  0.961939766255678 0.02083333333333333 0  0.9734650647475827 0.02083333333333333 0  0.9829629131445586 0.02083333333333333 0  0.9903926402016341 0.02083333333333333 0  0.9957224306869181 0.02083333333333333 0  0.9989294616193084 0.02083333333333333 0  1 0.02083333333333333 0  0 0.04166666666666666 0  0.001070538380698371 0.04166666666666666 0  0.004277569313095364 0.04166666666666666 0  0.009607359798386061 0.04166666666666666 0  0.01703708685546806 0.04166666666666666 0  0.02653493525245065 0.04166666666666666 0  0.03806023374436157 0.04166666666666666 0  0.05156362923366253 0.04166666666666666 0  0.06698729810778931 0.04166666666666666 0  0.08426519384873815 0.04166666666666666 0  0.1033233298543955 0.04166666666666666 0  0.1240800962605269 0.04166666666666666 0  0.1464466094067445 0.04166666666666666 0  0.1703270924499866 0.04166666666666666 0  0.1956192854956637 0.04166666666666666 0  0.2222148834902257 0.04166666666666666 0  0.2500000000000299 0.04166666666666666 0  0.2788556548905322 0.04166666666666666 0  0.308658283817491 0.04166666666666666 0  0.339280267348458 0.04166666666666666 0  0.3705904774487813 0.04166666666666666 0  0.4024548389919803 0.04166666666666666 0  0.4347369038900211 0.04166666666666666 0  0.467298435384978 0.04166666666666666 0  0.5000000000000517 0.04166666666666666 0  0.5327015646151253 0.04166666666666666 0  0.5652630961100813 0.04166666666666666 0  0.5975451610081212 0.04166666666666666 0  0.6294095225513188 0.04166666666666666 0  0.6607197326516399 0.04166666666666666 0  0.6913417161826045 0.04166666666666666 0  0.7211443451095605 0.04166666666666666 0  0.7500000000000597 0.04166666666666666 0  0.7777851165098603 0.04166666666666666 0  0.8043807145044185 0.04166666666666666 0  0.829672907550091 0.04166666666666666 0  0.8535533905933287 0.04166666666666666 0  0.8759199037395413 0.04166666666666666 0  0.8966766701456674 0.04166666666666666 0  0.9157348061513193 0.04166666666666666 0  0.9330127018922625 0.04166666666666666 0  0.9484363707663832 0.04166666666666666 0  0.961939766255678 0.04166666666666666 0  0.9734650647475827 0.04166666666666666 0  0.9829629131445586 0.04166666666666666 0  0.9903926402016341 0.04166666666666666 0  0.9957224306869181 0.04166666666666666 0  0.9989294616193084 0.04166666666666666 0  1 0.04166666666666666 0  0 0.0625 0  0.001070538380698371 0.0625 0  0.004277569313095364 0.0625 0  0.009607359798386061 0.0625 0  0.01703708685546806 0.0625 0  0.02653493525245065 0.0625 0  0.03806023374436157 0.0625 0  0.05156362923366253 0.0625 0  0.06698729810778931 0.0625 0  0.08426519384873815 0.0625 0  0.1033233298543955 0.0625 0  0.1240800962605269 0.0625 0  0.1464466094067445 0.0625 0  0.1703270924499866 0.0625 0  0.1956192854956637 0.0625 0  0.2222148834902257 0.0625 0  0.2500000000000299 0.0625 0  0.2788556548905322 0.0625 0  0.308658283817491 0.0625 0  0.339280267348458 0.0625 0  0.3705904774487813 0.0625 0  0.4024548389919803 0.0625 0  0.4347369038900211 0.0625 0  0.467298435384978 0.0625 0  0.5000000000000517 0.0625 0  0.5327015646151253 0.0625 0  0.5652630961100813 0.0625 0  0.5975451610081212 0.0625 0  0.6294095225513188 0.0625 0  0.6607197326516399 0.0625 0  0.6913417161826045 0.0625 0  0.7211443451095605 0.0625 0  0.7500000000000597 0.0625 0  0.7777851165098603 0.0625 0  0.8043807145044185 0.0625 0  0.829672907550091 0.0625 0  0.8535533905933287 0.0625 0  0.8759199037395413 0.0625 0  0.8966766701456674 0.0625 0  0.9157348061513193 0.0625 0  0.9330127018922625 0.0625 0  0.9484363707663832 0.0625 0  0.961939766255678 0.0625 0  0.9734650647475827 0.0625 0  0.9829629131445586 0.0625 0  0.9903926402016341 0.0625 0  0.9957224306869181 0.0625 0  0.9989294616193084 0.0625 0  1 0.0625 0  0 0.08333333333333333 0  0.001070538380698371 0.08333333333333333 0  0.004277569313095364 0.08333333333333333 0  0.009607359798386061 0.08333333333333333 0  0.01703708685546806 0.08333333333333333 0  0.02653493525245065 0.08333333333333333 0  0.03806023374436157 0.08333333333333333 0  0.05156362923366253 0.08333333333333333 0  0.06698729810778931 0.08333333333333333 0  0.08426519384873815 0.08333333333333333 0  0.1033233298543955 0.08333333333333333 0  0.1240800962605269 0.08333333333333333 0  0.1464466094067445 0.08333333333333333 0  0.1703270924499866 0.08333333333333333 0  0.1956192854956637 0.08333333333333333 0  0.2222148834902257 0.08333333333333333 0  0.2500000000000299 0.08333333333333333 0  0.2788556548905322 0.08333333333333333 0  0.308658283817491 0.08333333333333333 0  0.339280267348458 0.08333333333333333 0  0.3705904774487813 0.08333333333333333 0  0.4024548389919803 0.08333333333333333 0  0.4347369038900211 0.08333333333333333 0  0.467298435384978 0.08333333333333333 0  0.5000000000000517 0.08333333333333333 0  0.5327015646151253 0.08333333333333333 0  0.5652630961100813 0.08333333333333333 0  0.5975451610081212 0.08333333333333333 0  0.6294095225513188 0.08333333333333333 0  0.6607197326516399 0.08333333333333333 0  0.6913417161826045 0.08333333333333333 0  0.7211443451095605 0.08333333333333333 0  0.7500000000000597 0.08333333333333333 0  0.7777851165098603 0.08333333333333333 0  0.8043807145044185 0.08333333333333333 0  0.829672907550091 0.08333333333333333 0  0.8535533905933287 0.08333333333333333 0  0.8759199037395413 0.08333333333333333 0  0.8966766701456674 0.08333333333333333 0  0.9157348061513193 0.08333333333333333 0  0.9330127018922625 0.08333333333333333 0  0.9484363707663832 0.08333333333333333 0  0.961939766255678 0.08333333333333333 0  0.9734650647475827 0.08333333333333333 0  0.9829629131445586 0.08333333333333333 0  0.9903926402016341 0.08333333333333333 0  0.9957224306869181 0.08333333333333333 0  0.9989294616193084 0.08333333333333333 0  1 0.08333333333333333 0  0 0.1041666666666667 0  0.001070538380698371 0.1041666666666667 0  0.004277569313095364 0.1041666666666667 0  0.009607359798386061 0.1041666666666667 0  0.01703708685546806 0.1041666666666667 0  0.02653493525245065 0.1041666666666667 0  0.03806023374436157 0.1041666666666667 0  0.05156362923366253 0.1041666666666667 0  0.06698729810778931 0.1041666666666667 0  0.08426519384873815 0.1041666666666667 0  0.1033233298543955 0.1041666666666667 0  0.1240800962605269 0.1041666666666667 0  0.1464466094067445 0.1041666666666667 0  0.1703270924499866 0.1041666666666667 0  0.1956192854956637 0.1041666666666667 0  0.2222148834902257 0.1041666666666667 0  0.2500000000000299 0.1041666666666667 0  0.2788556548905322 0.1041666666666667 0  0.308658283817491 0.1041666666666667 0  0.339280267348458 0.1041666666666667 0  0.3705904774487813 0.1041666666666667 0  0.4024548389919803 0.1041666666666667 0  0.4347369038900211 0.1041666666666667 0  0.467298435384978 0.1041666666666667 0  0.5000000000000517 0.1041666666666667 0  0.5327015646151253 0.1041666666666667 0  0.5652630961100813 0.1041666666666667 0  0.5975451610081212 0.1041666666666667 0  0.62
[...]
<PointData  Scalars="f_6853532"> 
<DataArray  type="Float64"  Name="f_6853532"  format="ascii">3.0099644923449169e+00  3.0176730883625824e+00  2.9952355529969852e+00  2.8932454080027159e+00  2.6782483545947007e+00  2.2996790373355047e+00  1.6791800336726679e+00  8.7764297074827069e-01  1.6992171295433017e-01  -7.1424916622908385e-01  -1.6964225041686789e+00  -2.5474800062691432e+00  -3.2016486801703938e+00  -4.4024359230681993e+00  -5.3298585278019575e+00  -6.2018352413622688e+00  -6.8322318812158018e+00  -7.9480820766064451e+00  -8.7369924554032536e+00  -9.4584145772013049e+00  -9.8051481799675866e+00  -1.0743518904075009e+01  -1.0982356212973237e+01  -1.0668535047596796e+01  -1.0535441807627340e+01  -1.0243178740542124e+01  -1.0058500707522102e+01  -1.0076289556388188e+01  -9.1680003600303728e+00  -8.5186230258536995e+00  -8.1132466846214388e+00  -6.5756234617952449e+00  -5.1348460106661502e+00  -4.2378597234620425e+00  -2.7122203380413348e+00  -1.5939448497864774e+00  -5.8858311610226095e-03  1.1583500784435572e+00  2.4131298068771279e+00  3.4012167502085577e+00  4.4226963210636647e+00  5.4463079772469269e+00  6.2511175528104745e+00  6.7829551853700307e+00  7.0987594103593921e+00  7.2672561268252975e+00  7.3406935210425557e+00  7.3644712327377526e+00  7.3796475606494507e+00  3.6562306299786678e+00  3.6500739717528159e+00  3.6289104084357913e+00  3.5482265232070609e+00  3.3457309911129967e+00  2.9538936339647179e+00  2.3281574153098172e+00  1.3262137678265324e+00  5.8532440931933527e-01  -3.9006724555846517e-01  -1.4652983658021599e+00  -2.1071662036216727e+00  -2.8370383163803923e+00  -4.0182659311367424e+00  -4.9986737960338754e+00  -5.9321626357499522e+00  -6.5592014651444481e+00  -7.6715552841931309e+00  -8.4822111493632057e+00  -9.2123346455264858e+00  -9.5925862689842294e+00  -1.0419512578888757e+01  -1.0750776341055072e+01  -1.0368323362451747e+01  -1.0228853766669502e+01  -9.9453597800799560e+00  -9.7561991789522580e+00  -9.8655645457962731e+00  -8.8009399725592736e+00  -8.1193970800503621e+00  -7.6004685849144913e+00  -6.3804393486002082e+00  -4.9824661174553952e+00  -3.9375695639399222e+00  -2.2999916605586206e+00  -1.0947484643596821e+00  4.7803769833690352e-01  1.4292956358357907e+00  2.5716342514999266e+00  3.8712202553015844e+00  4.9297268227170470e+00  5.8309092589392781e+00  6.8213106947639330e+00  7.3546946408832570e+00  7.6735185713066576e+00  7.8532078499497926e+00  7.9371606521509221e+00  7.9590666156800509e+00  7.9516104373009071e+00  4.4209731506870433e+00  4.4256524283072363e+00  4.4143420748975872e+00  4.3563335528565661e+00  4.2022351913647462e+00  3.8746965481096982e+00  3.4108764015715622e+00  2.4691788219865760e+00  1.7347319790539277e+00  7.8994773637645643e-01  -9.4071326761042118e-01  -1.4687728530222917e+00  -2.0714953931844562e+00  -3.2893268115550334e+00  -4.3001105186076387e+00  -5.2851775826359146e+00  -5.9090444017396067e+00  -7.0120285669632656e+00  -7.8584440503284547e+00  -8.6056918714194737e+00  -8.9788258961949108e+00  -9.6510470194673310e+00  -1.0042586557894092e+01  -9.7115568209299976e+00  -9.5984217779833223e+00  -9.3227480114914858e+00  -9.1263573798773781e+00  -9.1598319094332155e+00  -8.0316309941760764e+00  -7.4113827565502630e+00  -6.8122216902110635e+00  -5.5715733909671190e+00  -4.6056469449265345e+00  -3.1332916124579659e+00  -1.4821634272768702e+00  -2.8084372306672206e-01  1.2109190931276703e+00  2.0368431186376093e+00  2.8961611795690048e+00  5.0062634921866245e+00  5.8596420000832099e+00  6.5800229471905647e+00  7.6800628878466464e+00  8.1958267028861176e+00  8.4950455001302512e+00  8.6605327661397098e+00  8.7305967964609508e+00  8.7463519697458807e+00  8.7482237021495095e+00  5.7081415837395166e+00  5.7015792927720419e+00  5.6793169749304058e+00  5.6114344879360400e+00  5.4474961256273744e+00  5.1350106378298372e+00  4.3837755830547289e+00  3.5209792762203120e+00  2.8370420898910864e+00  2.1232191975077437e+00  -1.4285978835231972e-01  -6.8172697923977854e-01  -1.2581139482551296e+00  -2.4215344237259884e+00  -3.4317215979602596e+00  -4.4503062204588293e+00  -5.0722789069346446e+00  -6.1470205612169329e+00  -7.0074984587569933e+00  -7.7789525327957465e+00  -8.1534514047392168e+00  -8.7297614719351575e+00  -9.1309276663051708e+00  -8.9104558707936974e+00  -8.8181013355728339e+00  -8.5726291816845652e+00  -8.3973456696908535e+00  -8.3446036396833279e+00  -7.1641437426104098e+00  -6.6255695408114663e+00  -5.9754301828615164e+00  -4.7608363985327449e+00  -3.9394852631626738e+00  -1.8654196532783969e+00  -4.5379150177854788e-01  6.0913147641111021e-01  1.9627721357591017e+00  2.6934733640888560e+00  3.4782124355897510e+00  6.0582507573372517e+00  6.8444522088735500e+00  7.6588370624293862e+00  8.8300281040577975e+00  9.4227309693358716e+00  9.7435945065006333e+00  9.9077955024976170e+00  9.9769657475605111e+00  9.9941990024664538e+00  9.9940650229803261e+00  6.7686168332394638e+00  6.7749672119160236e+00  6.7672838138049576e+00  6.7199047190525771e+00  6.5903008026414405e+00  6.3252999583901994e+00  5.7663356914628077e+00  4.8083132404648445e+00  3.9457272671593930e+00  3.3210902879556787e+00  9.1046499726087449e-01  3.1763654195346636e-01  -2.6134690260054388e-01  -1.4100004576452771e+00  -2.4265744913904799e+00  -3.4632383604561050e+00  -4.0744934592699513e+00  -5.1149423247491139e+00  -5.9767880612452338e+00  -6.7738597045497073e+00  -7.1501232130819350e+00  -7.6692311743691057e+00  -8.1048368624675238e+00  -7.9862518869335668e+00  -7.9184881055532879e+00  -7.7159972788770830e+00  -7.5597424902358492e+00  -7.4466441332984203e+00  -6.2444515460330861e+00  -5.7569015701869306e+00  -5.0754998825339621e+00  -3.9030294791729254e+00  -3.1109816992899866e+00  -7.5181832988510233e-01  4.3920220988743391e-01  1.4481487904641051e+00  2.7695974528814249e+00  3.4824887247810525e+00  4.3067389749043290e+00  6.9939965794899042e+00  7.9240834394122555e+00  8.7945000467348002e+00  9.8535824671989722e+00  1.0444046676092606e+01  1.0778877156846770e+01  1.0955946589049878e+01  1.1032777296536887e+01  1.1052310562599652e+01  1.1053944174805967e+01  8.0169362646378968e+00  8.0053831334625798e+00  7.9637238839773570e+00  7.8656079130102627e+00  7.6737654146218537e+00  7.3571932713664836e+00  6.8095748441641790e+00  6.0210111833018320e+00  5.2398005380661710e+00  4.5526247896681804e+00  2.1435919734974425e+00  1.5012019008340227e+00  8.9752390462015930e-01  -2.7610025131510374e-01  -1.3133626292870497e+00  -2.3739849047721733e+00  -2.9760894807980032e+00  -3.9753423261708276e+00  -4.8225698365936811e+00  -5.6388605540106527e+00  -6.0223369770452599e+00  -6.5142513766939052e+00  -7.0139530225552686e+00  -6.9803965674674382e+00  -6.9443680623613151e+00  -6.7872591685537325e+00  -6.6491116376475548e+00  -6.4983332004001904e+00  -5.3025073890981522e+00  -4.8499463910233231e+00  -4.1535127098385649e+00  -3.0047001119505690e+00  -2.2190555200729003e+00  1.8911108024084292e-01  1.2683265727856334e+00  2.2584933614075560e+00  3.6060693200188667e+00  4.3596311005637949e+00  5.1714273093899612e+00  7.8733096466950796e+00  9.0968315858298343e+00  9.9737227650732745e+00  1.0887844522371894e+01  1.1586504156000879e+01  1.2012337020454044e+01  1.2258827429979743e+01  1.2375472413741136e+01  1.2403133349655681e+01  1.2395666683781139e+01  1.0754017813850895e+01  1.0764388865364419e+01  1.0770641683160337e+01  1.0720684892860843e+01  1.0508302195886587e+01  9.9795745616455722e+00  8.3926343663486556e+00  7.2146078866761032e+00  6.2496620080696923e+00  5.7425800848774777e+00  3.5722846323671797e+00  2.8315285860630914e+00  2.1856273524101772e+00  9.4686129523416285e-01  -1.3006211584028102e-01  -1.2278029756825593e+00  -1.8274085944022707e+00  -2.7946847170449374e+00  -3.6222113124253088e+00  -4.4460513606332199e+00  -4.8353773793474231e+00  -5.3160387500832549e+00  -5.9037530410783967e+00  -5.9386591462695941e+00  -5.9366319144025246e+00  -5.8228134473812805e+00  -5.7013010550400720e+00  -5.5294525190549466e+00  -4.3595678778731743e+00  -3.9326748621626515e+00  -3.2277079834043803e+00  -2.0850276983062921e+00  -1.3093712741905854e+00  1.0782188629386460e+00  2.0936475140145983e+00  3.0670052474477414e+00  4.4673040168109663e+00  5.2886792936882507e+00  6.1867707289465832e+00  9.4603661923579221e+00  1.0709139515940230e+01  1.1683553517431125e+01  1.2723624552757517e+01  1.3810857376551454e+01  1.4526921680210886e+01  1.4803060631969057e+01  1.4883976755975839e+01  1.4897368695701211e+01  1.4906290423895541e+01  1.1704787785814082e+01  1.1702445426798306e+01  1.1699559740339890e+01  1.1677926915468607e+01  1.1604386111303262e+01  1.1422462995686313e+01  1.1012943536121382e+01  9.4894475478892044e+00  8.2730955079645305e+00  7.0125367290687812e+00  5.2287336883584672e+00  4.3197234160133240e+00  3.5686895576040376e+00  2.2227633689406741e+00  1.0863266516873589e+00  -6.3788812383265392e-02  -6.7182507485011911e-01  -1.6270727940095475e+00  -2.4447294259687120e+00  -3.2727283705734784e+00  -3.6635010816834974e+00  -4.1329926703204167e+00  -4.8156192060003233e+00  -4.9037091200973917e+00  -4.9335562954337151e+00  -4.8583023735287023e+00  -4.7515645538492262e+00  -4.5704693159284737e+00  -3.4348909491678237e+00  -3.0265914002055139e+00  -2.3139337926517896e+00  -1.1653999139282021e+00  -4.0321118156760838e-01  1.9647250069840534e+00  2.9238492352830048e+00  3.8805566128780602e+00  5.3641303736864279e+00  6.3015254988734632e+00  7.4076088912363147e+00  1.1064280098438088e+01  1.2561926587338666e+01  1.3777221182532045e+01  1.4742445266156039e+01  1.5466446891200235e+01  1.5790641036313417e+01  1.5907694368479353e+01  1.5964509855546138e+01  1.5978137375098141e+01  1.5973110732644459e+01  1.2655680370115149e+01  1.2661228916124108e+01  1.2659012794578498e+01  1.2634520977835017e+01  1.2561328062297040e+01  1.2413090111583143e+01  1.2060918033914058e+01  1.1381321150612305e+01  1.0600434196332378e+01  9.6120587310520182e+00  7.7020895944952050e+00  5.9571812139578295e+00  5.0178391627520069e+00  3.5156439549541245e+00  2.3044558397811072e+00  1.0890236945988807e+00  4.6226126366986076e-01  -5.0164349927717766e-01  -1.3251936015273615e+00  -2.1647301662007004e+00  -2.5570080431809048e+00  -3.0111569409288337e+00  -3.7792242751729881e+00  -3.9088058289663836e+00  -3.9657432605565681e+00  -3.9231497128795789e+00  -3.8290473981721411e+00  -3.6462112442059413e+00  -2.5433062866202505e+00  -2.1470703877650803e+00  -1.4238031960706654e+00  -2.6295932563239427e-01  4.8428573963434246e-01  2.8668804627951512e+00  3.7949844566455004e+00  4.7656261308622341e+00  6.4144195782358082e+00  7.5398149757136537e+00  8.9817376463707301e+00  1.2174695731690973e+01  1.3987017542041745e+01  1.5044048216673209e+01  1.5766987647993419e+01  1.6278061073782993e+01  1.6578882191860764e+01  1.6737845558873143e+01  1.6800752156114005e+01  1.6815147978968753e+01  1.6821087197704806e+01  1.4221635030402224e+01  1.4206445983781164e+01  1.4183031743420131e+01  1.4125020075780920e+01  1.3989828984652462e+01  1.3692066227953358e+01  1.2918035808776594e+01  1.2164312093404895e+01  1.1398269881427570e+01  1.0517435174439733e+01  9.4317861492030719e+00  7.8857256507823861e+00  6.4757458054287858e+00  4.7988022760218563e+00  3.5018969599052050e+00  2.2140309675865875e+00  1.5596531057627079e+00  5.7101474063879587e-01  -2.7232747298850868e-01  -1.1343412672049564e+00  -1.5323863537438740e+00  -1.9723114829043971e+00  -2.8119258870213129e+00  -2.9746490724710659e+00  -3.0535012755904622e+00  -3.0379944322629537e+00  -2.9542220013171003e+00  -2.7740791027932428e+00  -1.6957216600936309e+00  -1.3046394107937653e+00  -5.6720354322303579e-01  6.0821995118644889e-01  1.3508375184384609e+00  3.7828500480248239e+00  4.7752884385609393e+00  5.8919315435824000e+00  7.7868463151262306e+00  9.0887354764672281e+00  1.1047731814771161e+01  1.3776092907752236e+01  1.5428030430770042e+01  1.6250622629379396e+01  1.6805071524800407e+01  1.7300837995054412e+01  1.7642246236297972e+01  1.7827942002256961e+01  1.7904720846381466e+01  1.7921343964449470e+01  1.7910248291699531e+01  1.5179973295945302e+01  1.5207657844216621e+01  1.5208304988546326e+01  1.5173549652729900e+01  1.5075049381258198e+01  1.4840373070834852e+01  1.4154619004222434e+01  1.2984969483879349e+01  1.2164151276735222e+01  1.1319379456710470e+01  1.0342487886120210e+01  9.2214307303267802e+00  7.9404090127832436e+00  6.0959346980704856e+00  4.6972183737293598e+00  3.3077301077733048e+00  2.6159242054327905e+00  1.5884565873066030e+00  7.1504009277127512e-01  -1.7974144733195516e-01  -5.8888741292661917e-01  -1.0205923600123328e+00  -1.9219582643050730e+00  -2.1112314601559676e+00  -2.2079966555685688e+00  -2.2150108573060523e+00  -2.1392056278848885e+00  -1.9646027530113956e+00  -8.9929377701123336e-01  -5.0621479852381956e-01  2.4996067237401678e-01  1.4537511396451039e+00  2.2159921038637238e+00  4.6491428979592335e+00  5.8546674589680059e+00  7.2014442832652135e+00  9.1894244668349199e+00  1.0766373459120402e+01  1.3765738735934214e+01  1.6150205852181092e+01  1.7497578339440388e+01  1.8477782828761992e+01  1.9182639582091287e+01  1.9662707176679412e+01  1.9956258949621876e+01  2.0116327475019272e+01  2.0176101429932068e+01  2.0177343748116474e+01  2.0182856902168112e+01  1.6624699974901873e+01  1.6576475027030458e+01  1.6519588315280220e+01  1.6416928482349633e+01  1.6252722720701588e+01  1.6053543255409298e+01  1.5586771529544427e+01  1.4616472043091493e+01  1.3752942120173875e+01  1.2877995807610336e+01  1.1936191450289170e+01  1.0885891371169599e+01  9.7119224659556718e+00  7.8520527617039946e+00  5.9356542440277487e+00  4.3986905778118830e+00  3.6336141857062394e+00  2.5517256139400151e+00  1.6394900302700739e+00  7.0297220051447062e-01  2.7768303823444151e-01  -1.5324666729273309e-01  -1.1118873305556711e+00  -1.3220854717922506e+00  -1.4341829904137031e+00  -1.4600712029600882e+00  -1.3899099352747617e+00  -1.2221168803691989e+00  -1.5854336507933492e-01  2.4378193984498656e-01  1.0306136691155374e+00  2.2861925264554142e+00  3.0599873445806671e+00  5.4183849273022933e+00  6.9812605413009017e+00  8.5215014039508663e+00  1.0514440015075609e+01  1.2402937817290217e+01  1.5344831151708648e+01  1.7181894094366790e+01  1.8357429526968847e+01  1.9172935139279563e+01  1.9760283553747392e+01  2.0185544948678142e+01  2.0475673097512157e+01  2.0644918980545768e+01  2.0717090001585074e+01  2.0733605422107733e+01  2.0729303550913738e+01  1.8798357994902357e+01  1.8837822328473571e+01  1.8859510634679275e+01  1.8817000902845407e+01  1.8644117607178334e+01  1.8253742475790514e+01  1.7562433117700500e+01  1.6403679897352198e+01  1.5217316430909232e+01  1.4223532242575834e+01  1.3243333331617238e+01  1.2192623891259126e+01  1.1013472492750569e+01  9.5908785229740818e+00  7.5379480713000584e+00  5.5254059388284036e+00  4.6220328482402016e+00  3.4627576916162663e+00  2.5030597329995161e+00  1.5167239995045878e+00  1.0705101899550364e+00  6.3358014108367611e-01  -3.8104143923810163e-01  -6.0751335059606026e-01  -7.3327107561588767e-01  -7.7490694570584018e-01  -7.0777817256227371e-01  -5.4612169331171134e-01  5.2896802553678135e-01  9.5458104204490069e-01  1.7847304692005952e+00  3.1129539869782268e+00  3.9584545065171364e+00  6.5304230650672386e+00  8.4501601264868125e+00  1.0191674207941485e+01  1.2363202892266283e+01  1.4535367697283347e+01  1.6320175071032160e+01  1.7658073077986128e+01  1.8922213769650345e+01  1.9712262663029346e+01  2.0310307824276368e+01  2.0758712087048863e+01  2.1066893176430703e+01  2.1243912503889604e+01  2.1319011944700918e+01  2.1339216203179138e+01  2.1345679564229016e+01  1.9084604516870012e+01  1.9074849471690356e+01  1.9056101657408814e+01  1.9003509798435605e+01  1.8874374253246263e+01  1.8625520469035369e+01  1.8206910050488386e+01  1.7561657864230391e+01  1.6582345725970779e+01  1.5542827612282046e+01  1.4532586922311559e+01  1.3470340477323969e+01  1.2321880833510274e+01  1.0988442478080161e+01  9.2799468692218205e+00  6.8076587212839916e+00  5.5772343357378018e+00  4.3253463845662559e+00  3.3074902803475523e+00  2.2641690520596316e+00  1.7919975997472148e+00  1.3432552300652407e+00  2.7325880963635601e-01  3.3909066020759583e-02  -1.0429837283834642e-01  -1.5859220856852202e-01  -9.0905978242096119e-02  6.6488908767799559e-02  1.1716645797901815e+00  1.6376703914555162e+00  2.4993516169821266e+00  3.9251661383333722e+00  4.8997850657226270e+00  7.6913736042849719e+00  9.9734713180623178e+00  1.1916811569719034e+01  1.3813028915542663e+01  1.5477152435335073e+01  1.6719931437325240e+01  1.7850115351313246e+01  1.9112353302280855e+01  2.0383979266980745e+01  2.1118434863251643e+01  2.1657373360877941e+01  2.2028137865495484e+01  2.2249554693074874e+01  2.2349194026634969e+01  2.2370199364703844e+01  2.2354541997363757e+01  1.9611141519552465e+01  1.9613574174701391e+01  1.9605038099730486e+01  1.9555396325660411e+01  1.9423405703398426e+01  1.9166827265922169e+01  1.8748704871888251e+01  1.8130058143508297e+01  1.7282717603619069e+01  1.6274546050248841e+01  1.5230089278468377e+01  1.4139671012092760e+01  1.2981065576165058e+01  1.1714604258980017e+01  1.0234199261235144e+01  8.1267543999106344e+00  6.5273019824697540e+00  5.1462395150236846e+00  4.0558546166463962e+00  2.9501297831002979e+00  2.4454987960969938e+00  1.9790608147075475e+00  8.5521620252324870e-01  6.0478755808681017e-01  4.5486457211258113e-01  3.9127835272112366e-01  4.6379834717664942e-01  6.1888062036686486e-01  1.7812655064436809e+00  2.3060817294371048e+00  3.2065076903495422e+00  4.8106642570333751e+00  6.0235038109847947e+00  8.6895137275856573e+00  1.1039177365521446e+01  1.2896219533688308e+01  1.4478452321194828e+01  1.5890263167702619e+01  1.7099602968230858e+01  1.8231900442445067e+01  1.9475668553761118e+01  2.1452242508482321e+01  2.2813679258782233e+01  2.3450059609385296e+01  2.3773544810419221e+01  2.3926218114272373e+01  2.3974459181752525e+01  2.3974388081376539e+01  2.3984447359533004e+01  2.0674472326876355e+01  2.0667690602880278e+01  2.0645132517671591e+01  2.0574571036609644e+01  2.0417360581742965e+01  2.0136723511632340e+01  1.9703288923097809e+01  1.9095938260954323e+01  1.8306126504476559e+01  1.7355997780163076e+01  1.6294654205999688e+01  1.5151853794776828e+01  1.3941720535903658e+01  1.2672170860280707e+01  1.1226365379469023e+01  9.2983666706099850e+00  7.5047421841599933e+00  5.9317256592569869e+00  4.7609628234437933e+00  3.5848423735553623e+00  3.0380807206421117e+00  2.5451251073187935e+00  1.3705309142909134e+00  1.1087802114296099e+00  9.4682151342343168e-01  8.7760373421698035e-01  9.5891449712528709e-01  1.1161054491025639e+00  2.3522106943272756e+00  2.9533524112502110e+00  3.9628871510633870e+00  5.8564028097486203e+00  7.3856635376426034e+00  9.9966468992993640e+00  1.2243076898152831e+01  1.3858407252003076e+01  1.5122605244258338e+01  1.6419282506938785e+01  1.7653046891597985e+01  1.8882067898825980e+01  2.0365616467547412e+01  2.2425726532296444e+01  2.3386061029947122e+01  2.3784770360680042e+01  2.4007626260541279e+01  2.4130059697978020e+01  2.4184666119793871e+01  2.4200080170874699e+01  2.4194945690782617e+01  2.1440978767538482e+01  2.1451804192750359e+01  2.1439716721040782e+01  2.1374311945219322e+01  2.1212566274335156e+01  2.0915711392317551e+01  2.0461135539889742e+01  1.9839237623768170e+01  1.9052047516940746e+01  1.8117498349802442e+01  1.7063950036798339e+01  1.5910339564546394e+01  1.4671469130393895e+01  1.3372584544575078e+01  1.1987846552168181e+01  1.0287075818024370e+01  8.4045730033077284e+00  6.7471707095317903e+00  5.4566262219093487e+00  4.1939284875143290e+00  3.5833650519156999e+00  3.0476219480850353e+00  1.8267694526349232e+00  1.5505232134337783e+00  1.3741102971989769e+00  1.3041374761395006e+00  1.3962879634538512e+00  1.5703126607659559e+00  2.8921718025883489e+00  3.6172879556120972e+00  4.8227844921368455e+00  7.0024849165296077e+00  8.9878411288902385e+00  1.1648279631428766e+01  1.3545110380992631e+01  1.508209