<?xml version="1.0"?>
<VTKFile type="UnstructuredGrid"  version="0.1"  >
<UnstructuredGrid>
<Piece  NumberOfPoints="2401" NumberOfCells="4608">
<Points>
<DataArray  type="Float64"  NumberOfComponents="3"  format="ascii">0 0 0  0.001070538380698371 0 0  0.004277569313095364 0 0  0.009607359798386061 0 0  0.01703708685546806 0 0  0.02653493525245065 0 0  0.03806023374436157 0 0  0.05156362923366253 0 0  0.06698729810778931 0 0  0.08426519384873815 0 0  0.1033233298543955 0 0  0.1240800962605269 0 0  0.1464466094067445 0 0  0.1703270924499866 0 0  0.1956192854956637 0 0  0.2222148834902257 0 0  0.2500000000000299 0 0  0.2788556548905322 0 0  0.308658283817491 0 0  0.339280267348458 0 0  0.3705904774487813 0 0  0.4024548389919803 0 0  0.4347369038900211 0 0  0.467298435384978 0 0  0.5000000000000517 0 0  0.5327015646151253 0 0  0.5652630961100813 0 0  0.5975451610081212 0 0  0.6294095225513188 0 0  0.6607197326516399 0 0  0.6913417161826045 0 0  0.7211443451095605 0 0  0.7500000000000597 0 0  0.7777851165098603 0 0  0.8043807145044185 0 0  0.829672907550091 0 0  0.8535533905933287 0 0  0.8759199037395413 0 0  0.8966766701456674 0 0  0.9157348061513193 0 0  0.9330127018922625 0 0  0.9484363707663832 0 0  0.961939766255678 0 0  0.9734650647475827 0 0  0.9829629131445586 0 0  0.9903926402016341 0 0  0.9957224306869181 0 0  0.9989294616193084 0 0  1 0 0  0 0.02083333333333333 0  0.001070538380698371 0.02083333333333333 0  0.004277569313095364 0.02083333333333333 0  0.009607359798386061 0.02083333333333333 0  0.01703708685546806 0.02083333333333333 0  0.02653493525245065 0.02083333333333333 0  0.03806023374436157 0.02083333333333333 0  0.05156362923366253 0.02083333333333333 0  0.06698729810778931 0.02083333333333333 0  0.08426519384873815 0.02083333333333333 0  0.1033233298543955 0.02083333333333333 0  0.1240800962605269 0.02083333333333333 0  0.1464466094067445 0.02083333333333333 0  0.1703270924499866 0.02083333333333333 0  0.1956192854956637 0.02083333333333333 0  0.2222148834902257 0.02083333333333333 0  0.2500000000000299 0.02083333333333333 0  0.2788556548905322 0.02083333333333333 0  0.308658283817491 0.02083333333333333 0  0.339280267348458 0.02083333333333333 0  0.3705904774487813 0.02083333333333333 0  0.4024548389919803 0.02083333333333333 0  0.4347369038900211 0.02083333333333333 0  0.467298435384978 0.02083333333333333 0  0.5000000000000517 0.02083333333333333 0  0.5327015646151253 0.02083333333333333 0  0.5652630961100813 0.02083333333333333 0  0.5975451610081212 0.02083333333333333 0  0.6294095225513188 0.02083333333333333 0  0.6607197326516399 0.02083333333333333 0  0.6913417161826045 0.02083333333333333 0  0.7211443451095605 0.02083333333333333 0  0.7500000000000597 0.02083333333333333 0  0.7777851165098603 0.02083333333333333 0  0.8043807145044185 0.02083333333333333 0  0.829672907550091 0.02083333333333333 0  0.8535533905933287 0.02083333333333333 0  0.8759199037395413 0.02083333333333333 0  0.8966766701456674 0.02083333333333333 0  0.9157348061513193 0.02083333333333333 0  0.9330127018922625 0.02083333333333333 0  0.9484363707663832 0.02083333333333333 0  0.961939766255678 0.02083333333333333 0  0.9734650647475827 0.02083333333333333 0  0.9829629131445586 0.02083333333333333 0  0.9903926402016341 0.02083333333333333 0  0.9957224306869181 0.02083333333333333 0  0.9989294616193084 0.02083333333333333 0  1 0.02083333333333333 0  0 0.04166666666666666 0  0.001070538380698371 0.04166666666666666 0  0.004277569313095364 0.04166666666666666 0  0.009607359798386061 0.04166666666666666 0  0.01703708685546806 0.04166666666666666 0  0.02653493525245065 0.04166666666666666 0  0.03806023374436157 0.04166666666666666 0  0.05156362923366253 0.04166666666666666 0  0.06698729810778931 0.04166666666666666 0  0.08426519384873815 0.04166666666666666 0  0.1033233298543955 0.04166666666666666 0  0.1240800962605269 0.04166666666666666 0  0.1464466094067445 0.04166666666666666 0  0.1703270924499866 0.04166666666666666 0  0.1956192854956637 0.04166666666666666 0  0.2222148834902257 0.04166666666666666 0  0.2500000000000299 0.04166666666666666 0  0.2788556548905322 0.04166666666666666 0  0.308658283817491 0.04166666666666666 0  0.339280267348458 0.04166666666666666 0  0.3705904774487813 0.04166666666666666 0  0.4024548389919803 0.04166666666666666 0  0.4347369038900211 0.04166666666666666 0  0.467298435384978 0.04166666666666666 0  0.5000000000000517 0.04166666666666666 0  0.5327015646151253 0.04166666666666666 0  0.5652630961100813 0.04166666666666666 0  0.5975451610081212 0.04166666666666666 0  0.6294095225513188 0.04166666666666666 0  0.6607197326516399 0.04166666666666666 0  0.6913417161826045 0.04166666666666666 0  0.7211443451095605 0.04166666666666666 0  0.7500000000000597 0.04166666666666666 0  0.7777851165098603 0.04166666666666666 0  0.8043807145044185 0.04166666666666666 0  0.829672907550091 0.04166666666666666 0  0.8535533905933287 0.04166666666666666 0  0.8759199037395413 0.04166666666666666 0  0.8966766701456674 0.04166666666666666 0  0.9157348061513193 0.04166666666666666 0  0.9330127018922625 0.04166666666666666 0  0.9484363707663832 0.04166666666666666 0  0.961939766255678 0.04166666666666666 0  0.9734650647475827 0.04166666666666666 0  0.9829629131445586 0.04166666666666666 0  0.9903926402016341 0.04166666666666666 0  0.9957224306869181 0.04166666666666666 0  0.9989294616193084 0.04166666666666666 0  1 0.04166666666666666 0  0 0.0625 0  0.001070538380698371 0.0625 0  0.004277569313095364 0.0625 0  0.009607359798386061 0.0625 0  0.01703708685546806 0.0625 0  0.02653493525245065 0.0625 0  0.03806023374436157 0.0625 0  0.05156362923366253 0.0625 0  0.06698729810778931 0.0625 0  0.08426519384873815 0.0625 0  0.1033233298543955 0.0625 0  0.1240800962605269 0.0625 0  0.1464466094067445 0.0625 0  0.1703270924499866 0.0625 0  0.1956192854956637 0.0625 0  0.2222148834902257 0.0625 0  0.2500000000000299 0.0625 0  0.2788556548905322 0.0625 0  0.308658283817491 0.0625 0  0.339280267348458 0.0625 0  0.3705904774487813 0.0625 0  0.4024548389919803 0.0625 0  0.4347369038900211 0.0625 0  0.467298435384978 0.0625 0  0.5000000000000517 0.0625 0  0.5327015646151253 0.0625 0  0.5652630961100813 0.0625 0  0.5975451610081212 0.0625 0  0.6294095225513188 0.0625 0  0.6607197326516399 0.0625 0  0.6913417161826045 0.0625 0  0.7211443451095605 0.0625 0  0.7500000000000597 0.0625 0  0.7777851165098603 0.0625 0  0.8043807145044185 0.0625 0  0.829672907550091 0.0625 0  0.8535533905933287 0.0625 0  0.8759199037395413 0.0625 0  0.8966766701456674 0.0625 0  0.9157348061513193 0.0625 0  0.9330127018922625 0.0625 0  0.9484363707663832 0.0625 0  0.961939766255678 0.0625 0  0.9734650647475827 0.0625 0  0.9829629131445586 0.0625 0  0.9903926402016341 0.0625 0  0.9957224306869181 0.0625 0  0.9989294616193084 0.0625 0  1 0.0625 0  0 0.08333333333333333 0  0.001070538380698371 0.08333333333333333 0  0.004277569313095364 0.08333333333333333 0  0.009607359798386061 0.08333333333333333 0  0.01703708685546806 0.08333333333333333 0  0.02653493525245065 0.08333333333333333 0  0.03806023374436157 0.08333333333333333 0  0.05156362923366253 0.08333333333333333 0  0.06698729810778931 0.08333333333333333 0  0.08426519384873815 0.08333333333333333 0  0.1033233298543955 0.08333333333333333 0  0.1240800962605269 0.08333333333333333 0  0.1464466094067445 0.08333333333333333 0  0.1703270924499866 0.08333333333333333 0  0.1956192854956637 0.08333333333333333 0  0.2222148834902257 0.08333333333333333 0  0.2500000000000299 0.08333333333333333 0  0.2788556548905322 0.08333333333333333 0  0.308658283817491 0.08333333333333333 0  0.339280267348458 0.08333333333333333 0  0.3705904774487813 0.08333333333333333 0  0.4024548389919803 0.08333333333333333 0  0.4347369038900211 0.08333333333333333 0  0.467298435384978 0.08333333333333333 0  0.5000000000000517 0.08333333333333333 0  0.5327015646151253 0.08333333333333333 0  0.5652630961100813 0.08333333333333333 0  0.5975451610081212 0.08333333333333333 0  0.6294095225513188 0.08333333333333333 0  0.6607197326516399 0.08333333333333333 0  0.6913417161826045 0.08333333333333333 0  0.7211443451095605 0.08333333333333333 0  0.7500000000000597 0.08333333333333333 0  0.7777851165098603 0.08333333333333333 0  0.8043807145044185 0.08333333333333333 0  0.829672907550091 0.08333333333333333 0  0.8535533905933287 0.08333333333333333 0  0.8759199037395413 0.08333333333333333 0  0.8966766701456674 0.08333333333333333 0  0.9157348061513193 0.08333333333333333 0  0.9330127018922625 0.08333333333333333 0  0.9484363707663832 0.08333333333333333 0  0.961939766255678 0.08333333333333333 0  0.9734650647475827 0.08333333333333333 0  0.9829629131445586 0.08333333333333333 0  0.9903926402016341 0.08333333333333333 0  0.9957224306869181 0.08333333333333333 0  0.9989294616193084 0.08333333333333333 0  1 0.08333333333333333 0  0 0.1041666666666667 0  0.001070538380698371 0.1041666666666667 0  0.004277569313095364 0.1041666666666667 0  0.009607359798386061 0.1041666666666667 0  0.01703708685546806 0.1041666666666667 0  0.02653493525245065 0.1041666666666667 0  0.03806023374436157 0.1041666666666667 0  0.05156362923366253 0.1041666666666667 0  0.06698729810778931 0.1041666666666667 0  0.08426519384873815 0.1041666666666667 0  0.1033233298543955 0.1041666666666667 0  0.1240800962605269 0.1041666666666667 0  0.1464466094067445 0.1041666666666667 0  0.1703270924499866 0.1041666666666667 0  0.1956192854956637 0.1041666666666667 0  0.2222148834902257 0.1041666666666667 0  0.2500000000000299 0.1041666666666667 0  0.2788556548905322 0.1041666666666667 0  0.308658283817491 0.1041666666666667 0  0.339280267348458 0.1041666666666667 0  0.3705904774487813 0.1041666666666667 0  0.4024548389919803 0.1041666666666667 0  0.4347369038900211 0.1041666666666667 0  0.467298435384978 0.1041666666666667 0  0.5000000000000517 0.1041666666666667 0  0.5327015646151253 0.1041666666666667 0  0.5652630961100813 0.1041666666666667 0  0.5975451610081212 0.1041666666666667 0  0.62
[...]
<PointData  Scalars="f_6853547"> 
<DataArray  type="Float64"  Name="f_6853547"  format="ascii">1.9148326462084481e+02  1.9148638462361347e+02  1.9148731335872699e+02  1.9148511738909193e+02  1.9146778729225210e+02  1.9139801066893821e+02  1.9122898264020321e+02  1.9092716375742049e+02  1.9054185646518880e+02  1.8995466752081984e+02  1.8900562005593267e+02  1.8785450705292584e+02  1.8700083273186445e+02  1.8528634631993665e+02  1.8370609761031329e+02  1.8181134541784814e+02  1.8055775342818740e+02  1.7809974973547989e+02  1.7597742581998321e+02  1.7336755165282929e+02  1.7188657008200269e+02  1.6941145788285726e+02  1.6525635461337185e+02  1.6286010162448392e+02  1.6093412805589463e+02  1.5835292372117686e+02  1.5679191824756299e+02  1.5423503330339253e+02  1.5111958979031360e+02  1.4930639021371536e+02  1.4738269648469196e+02  1.4399446673309191e+02  1.4210097808235756e+02  1.4093150927892924e+02  1.3929475212327637e+02  1.3813664401481074e+02  1.3669758516656503e+02  1.3573060993987673e+02  1.3476139897218209e+02  1.3408774064125674e+02  1.3347276409649433e+02  1.3294570977300248e+02  1.3262555843855748e+02  1.3245257635781289e+02  1.3235816577425632e+02  1.3230232958636421e+02  1.3227273363899971e+02  1.3226532446774010e+02  1.3227068960372105e+02  1.9172444027667521e+02  1.9172170488191489e+02  1.9172141323220339e+02  1.9172456299993144e+02  1.9172038488446796e+02  1.9168168921089418e+02  1.9155482282314881e+02  1.9121313623393505e+02  1.9080126884333609e+02  1.9019341102875612e+02  1.8892576907684818e+02  1.8800940227315405e+02  1.8711485061249755e+02  1.8545805341324515e+02  1.8380063075822079e+02  1.8188709504026468e+02  1.8060465788557812e+02  1.7821747914672912e+02  1.7600258985986295e+02  1.7341035490455104e+02  1.7187911105947771e+02  1.6969189536713452e+02  1.6505664453222749e+02  1.6283947991634724e+02  1.6087758918454148e+02  1.5837138358374250e+02  1.5681100777047479e+02  1.5457845293479616e+02  1.5080235383918429e+02  1.4924310239936116e+02  1.4723588310309665e+02  1.4453969679214237e+02  1.4208855042109201e+02  1.4080521016561283e+02  1.3912356146152680e+02  1.3801470207777984e+02  1.3666151242903373e+02  1.3590313370426261e+02  1.3477574901682422e+02  1.3397156151569666e+02  1.3341231711197116e+02  1.3294862265750322e+02  1.3261099610607806e+02  1.3250830819513584e+02  1.3246587317898195e+02  1.3245236481982823e+02  1.3245106342508666e+02  1.3245151221381101e+02  1.3244895353152873e+02  1.9189162343473163e+02  1.9189212762877341e+02  1.9189635154604548e+02  1.9191009407828253e+02  1.9192980520455743e+02  1.9193527798070184e+02  1.9188981993212880e+02  1.9162375682897431e+02  1.9122483099425241e+02  1.9078286161762671e+02  1.8892838638564282e+02  1.8811056618998040e+02  1.8734617942503414e+02  1.8565029140315667e+02  1.8397626067724966e+02  1.8202009949421623e+02  1.8074138834635519e+02  1.7837137418958503e+02  1.7609393914862832e+02  1.7348315737576706e+02  1.7194577340817631e+02  1.6990425307455254e+02  1.6484927482378529e+02  1.6278376869699406e+02  1.6081035528234909e+02  1.5837264737500277e+02  1.5688678679814296e+02  1.5503069517150703e+02  1.5043121820105935e+02  1.4914499398946694e+02  1.4716447963676714e+02  1.4466128673332693e+02  1.4260896690409743e+02  1.4048509592117642e+02  1.3890501139122432e+02  1.3784991822157406e+02  1.3662218596903404e+02  1.3600413608450032e+02  1.3518655410487369e+02  1.3384284186495273e+02  1.3350065614493204e+02  1.3313107670463540e+02  1.3274994213139709e+02  1.3270323893015396e+02  1.3270223602706844e+02  1.3271404706318560e+02  1.3272325776739763e+02  1.3272696809472575e+02  1.3272943036825276e+02  1.9195293585847509e+02  1.9195275526676608e+02  1.9195860087609660e+02  1.9197554694091167e+02  1.9200214145147811e+02  1.9203511486645235e+02  1.9199531525287230e+02  1.9178671600533559e+02  1.9140388188428122e+02  1.9121936827476156e+02  1.8903760732864140e+02  1.8820425601574971e+02  1.8747693588316471e+02  1.8580637965615213e+02  1.8412156406150967e+02  1.8212932730877165e+02  1.8085815616148236e+02  1.7851697114583291e+02  1.7620284027331999e+02  1.7354090443604474e+02  1.7199785390622762e+02  1.6994687528566897e+02  1.6476960319615708e+02  1.6274142934219924e+02  1.6077217864918404e+02  1.5837335413015262e+02  1.5695445326675267e+02  1.5519318126407450e+02  1.5025689066877200e+02  1.4909799337208710e+02  1.4712519588094338e+02  1.4466813326348628e+02  1.4306696172159101e+02  1.4015605973262964e+02  1.3885746091847759e+02  1.3780842609361684e+02  1.3666324852359256e+02  1.3610618212020771e+02  1.3539169279745292e+02  1.3388657900656202e+02  1.3371570977752563e+02  1.3345073586797935e+02  1.3323018623133231e+02  1.3321646152455273e+02  1.3323008143470503e+02  1.3325149934491569e+02  1.3326278920895231e+02  1.3326585583585253e+02  1.3326394317860010e+02  1.9185452782603389e+02  1.9185593853328663e+02  1.9185777640955484e+02  1.9187056471603111e+02  1.9190852156308094e+02  1.9196281965221479e+02  1.9196271777277826e+02  1.9180734883054350e+02  1.9144863669742625e+02  1.9135625159712598e+02  1.8915446343473963e+02  1.8827046660099506e+02  1.8755285596117017e+02  1.8588705519518922e+02  1.8419208270949110e+02  1.8219069460997565e+02  1.8093574095497362e+02  1.7861958297472418e+02  1.7627849541253673e+02  1.7357024608272206e+02  1.7201831124171659e+02  1.6993277915199158e+02  1.6474825716416234e+02  1.6270983780794211e+02  1.6074947725882106e+02  1.5837927675663576e+02  1.5699986312676890e+02  1.5526111423302351e+02  1.5020835917958055e+02  1.4908938397651178e+02  1.4713231396838046e+02  1.4470921508850503e+02  1.4322483642502385e+02  1.4002402923832844e+02  1.3893398619778330e+02  1.3792962425393540e+02  1.3680196251662412e+02  1.3627921158146594e+02  1.3559947617710620e+02  1.3411228441206637e+02  1.3399693243519138e+02  1.3382700727405538e+02  1.3371926127272650e+02  1.3373034886132322e+02  1.3375759590949775e+02  1.3378436098912601e+02  1.3379822097955588e+02  1.3380118894373342e+02  1.3380076585988414e+02  1.9169428755060571e+02  1.9169096195999668e+02  1.9170796865139445e+02  1.9175066392232370e+02  1.9180604359421883e+02  1.9182031713497148e+02  1.9177413572470707e+02  1.9167207782718367e+02  1.9139003652774238e+02  1.9131628115870566e+02  1.8915760764507866e+02  1.8825213074075813e+02  1.8753171973222143e+02  1.8586438703689765e+02  1.8417204525446027e+02  1.8217472510916491e+02  1.8093298686511520e+02  1.7863891671250360e+02  1.7629163777924489e+02  1.7355974489228302e+02  1.7200103546712057e+02  1.6989504197586345e+02  1.6473204528552574e+02  1.6269015862097160e+02  1.6074175342118900e+02  1.5839496834078761e+02  1.5703978096100352e+02  1.5530620047280252e+02  1.5022878075488521e+02  1.4912978834966665e+02  1.4720227671331187e+02  1.4478863487734307e+02  1.4333064013507482e+02  1.4008503889833059e+02  1.3908449629686737e+02  1.3812362165670243e+02  1.3701976574788230e+02  1.3652588701517183e+02  1.3588820936550547e+02  1.3452472222985693e+02  1.3440286827657889e+02  1.3432710065853169e+02  1.3429559044736772e+02  1.3425823466114625e+02  1.3430331354237293e+02  1.3438100226531708e+02  1.3443003248133454e+02  1.3444809409523023e+02  1.3445234682854542e+02  1.9073306160747910e+02  1.9073596101333982e+02  1.9074190482903612e+02  1.9077547331656288e+02  1.9086922317393649e+02  1.9105099407021817e+02  1.9144233600152205e+02  1.9141469097439196e+02  1.9118803333442654e+02  1.9101957922240155e+02  1.8901534314434116e+02  1.8810320597488092e+02  1.8737969282086172e+02  1.8572120546935665e+02  1.8404554802337009e+02  1.8206044383479991e+02  1.8082883332366421e+02  1.7855211318011061e+02  1.7621724126674880e+02  1.7349371964001290e+02  1.7194308702801365e+02  1.6984999619931929e+02  1.6469996676425021e+02  1.6267621322498141e+02  1.6074452987357148e+02  1.5842178982026348e+02  1.5708666609814935e+02  1.5536072737078334e+02  1.5030866655256858e+02  1.4922502376595855e+02  1.4733120127570510e+02  1.4492620502067197e+02  1.4348659106193475e+02  1.4027879507203681e+02  1.3933544213514793e+02  1.3839985217993373e+02  1.3730781769304005e+02  1.3682705903885457e+02  1.3626811304581389e+02  1.3531189538030551e+02  1.3525810523420483e+02  1.3521423406761346e+02  1.3536606207226819e+02  1.3565221417630630e+02  1.3592361391015010e+02  1.3604737636743673e+02  1.3608403815348711e+02  1.3608612039114962e+02  1.3608104303513443e+02  1.9021387777744690e+02  1.9021284470424681e+02  1.9021111361973931e+02  1.9021623052828079e+02  1.9024148768229938e+02  1.9031513685768715e+02  1.9049204768099881e+02  1.9080979024597048e+02  1.9075894420065714e+02  1.9030440537948795e+02  1.8867498923136174e+02  1.8779864555563540e+02  1.8707941897903893e+02  1.8544840213317676e+02  1.8380354946168333e+02  1.8183904750117773e+02  1.8061674556593658e+02  1.7835741303854363e+02  1.7604868554691225e+02  1.7336185865816370e+02  1.7183863030119687e+02  1.6979601735387428e+02  1.6464309711568927e+02  1.6266193469386013e+02  1.6075431101791790e+02  1.5846065552115138e+02  1.5714790053191089e+02  1.5544100532058457e+02  1.5044346552091648e+02  1.4937703228975116e+02  1.4751876710238432e+02  1.4513926122672672e+02  1.4372795826566175e+02  1.4059487064543401e+02  1.3971822441495900e+02  1.3878670115423665e+02  1.3767907613201356e+02  1.3717660647128926e+02  1.3671408152722037e+02  1.3603106748537451e+02  1.3636172754312352e+02  1.3655523813446129e+02  1.3680566187612837e+02  1.3700059009969229e+02  1.3709749287845679e+02  1.3713258302653219e+02  1.3715254391400157e+02  1.3716045800703952e+02  1.3716288835099334e+02  1.8963745589746702e+02  1.8963621445788939e+02  1.8963634521928932e+02  1.8963979705375863e+02  1.8964180528335683e+02  1.8962113746028714e+02  1.8948453500875743e+02  1.8919381378251140e+02  1.8887147773139714e+02  1.8851469267298708e+02  1.8799820645964169e+02  1.8734935569462067e+02  1.8662764680978654e+02  1.8504852332979780e+02  1.8344506900013593e+02  1.8151008709271278e+02  1.8029961980358237e+02  1.7806452158527253e+02  1.7579376233120206e+02  1.7316226820417376e+02  1.7168042052639746e+02  1.6971512000757312e+02  1.6456289661027540e+02  1.6264382118984096e+02  1.6076759014157244e+02  1.5851070465543378e+02  1.5722574954710649e+02  1.5555257353204675e+02  1.5063179498733467e+02  1.4958821412908608e+02  1.4776743648363464e+02  1.4543436295118943e+02  1.4406578724449250e+02  1.4102953486167581e+02  1.4024674460709107e+02  1.3932793052134272e+02  1.3822748179149499e+02  1.3766990166759484e+02  1.3732022152044377e+02  1.3700970792228546e+02  1.3720774521361221e+02  1.3744354686618945e+02  1.3766853363446799e+02  1.3780815705166415e+02  1.3788770394834813e+02  1.3792808421401017e+02  1.3794327484910653e+02  1.3794368170638054e+02  1.3794244309976892e+02  1.8861740902684787e+02  1.8862136106040518e+02  1.8863109961149954e+02  1.8864138817907036e+02  1.8864674529590781e+02  1.8864817398800605e+02  1.8858371339639919e+02  1.8833338759086229e+02  1.8801889317986502e+02  1.8766807895395971e+02  1.8726513912476946e+02  1.8674435527032668e+02  1.8604142486838006e+02  1.8452882581253914e+02  1.8297026053440993e+02  1.8107609457201323e+02  1.7988242286353807e+02  1.7768209067204970e+02  1.7546110068745466e+02  1.7289716148626709e+02  1.7146345784337186e+02  1.6958766959239878e+02  1.6446506181334283e+02  1.6261987368609763e+02  1.6078159070910314e+02  1.5857028235093225e+02  1.5731919585546601e+02  1.5569447807826069e+02  1.5087373244003282e+02  1.4985972168682827e+02  1.4807987501756389e+02  1.4581036695503389e+02  1.4450734284752366e+02  1.4157160237293610e+02  1.4089018436873374e+02  1.4011422486324850e+02  1.3914485452420143e+02  1.3850687804122586e+02  1.3814714928279702e+02  1.3833140437701161e+02  1.3846685003127769e+02  1.3835248112434067e+02  1.3846552623920880e+02  1.3863155333804642e+02  1.3877111536140524e+02  1.3885967674273184e+02  1.3890804264739097e+02  1.3893143854975574e+02  1.3893766804541772e+02  1.8781337182992851e+02  1.8781110485607121e+02  1.8780398660750691e+02  1.8779872550052991e+02  1.8780555756689120e+02  1.8782218953787421e+02  1.8779810457611691e+02  1.8763684395755902e+02  1.8736849846454766e+02  1.8702886540803271e+02  1.8659797772217613e+02  1.8604728332490316e+02  1.8529002385683140e+02  1.8387238279829012e+02  1.8237067690343068e+02  1.8053959685142320e+02  1.7936847111881272e+02  1.7721363217532786e+02  1.7505523269625323e+02  1.7256877338531115e+02  1.7118567901845972e+02  1.6940320619276000e+02  1.6435442636705605e+02  1.6258923109516206e+02  1.6079479266792436e+02  1.5863751325855253e+02  1.5742553280731877e+02  1.5586249866317792e+02  1.5116952647458882e+02  1.5019147966494873e+02  1.4846035495195636e+02  1.4627378560834291e+02  1.4503948073297201e+02  1.4221517865239099e+02  1.4158992908166877e+02  1.4105309663484474e+02  1.4032400441080307e+02  1.3986511560810862e+02  1.3977059935903372e+02  1.4044728533742577e+02  1.4091673822190606e+02  1.4123039788113647e+02  1.4145099129986468e+02  1.4155611423913865e+02  1.4159988962091165e+02  1.4161353660838938e+02  1.4160890032746079e+02  1.4158747271245406e+02  1.4157381306106461e+02  1.8705397756010285e+02  1.8705649321236169e+02  1.8709471785123750e+02  1.8714536450880092e+02  1.8714347593419942e+02  1.8698075954926395e+02  1.8660790187492799e+02  1.8619770939311525e+02  1.8589663361165364e+02  1.8557596243713991e+02  1.8518773467035820e+02  1.8468940292871875e+02  1.8400440803745107e+02  1.8299497621499057e+02  1.8163325203239174e+02  1.7990431809376221e+02  1.7875917750117060e+02  1.7665907275347632e+02  1.7457791448222872e+02  1.7217880858257891e+02  1.7084719585487437e+02  1.6915993799354712e+02  1.6423347496490067e+02  1.6255174195322661e+02  1.6080671653709584e+02  1.5871064047726500e+02  1.5754162219459542e+02  1.5605196080030652e+02  1.5152072959212293e+02  1.5058308780802250e+02  1.4891065022216785e+02  1.4682245423085001e+02  1.4563912225555654e+02  1.4306445043322432e+02  1.4234323677255159e+02  1.4199444535304445e+02  1.4162924254340101e+02  1.4133953467651466e+02  1.4131029708256807e+02  1.4172090116687528e+02  1.4205968121481058e+02  1.4229079770852167e+02  1.4245227198696841e+02  1.4256807307817741e+02  1.4265275755682663e+02  1.4270440064319533e+02  1.4273093056143895e+02  1.4274333370278887e+02  1.4275134966261015e+02  1.8412837762886335e+02  1.8412899405277744e+02  1.8412041998528602e+02  1.8411271725039046e+02  1.8411778823335771e+02  1.8413851245417533e+02  1.8420213598359928e+02  1.8436565000001124e+02  1.8437965851528452e+02  1.8417400929555950e+02  1.8384830922822121e+02  1.8339776622149640e+02  1.8278247120541306e+02  1.8192730605044747e+02  1.8074557403431743e+02  1.7918833600488651e+02  1.7805416946553396e+02  1.7601818407953050e+02  1.7403061142900066e+02  1.7172904881799118e+02  1.7044938438952084e+02  1.6886001319318859e+02  1.6410337831696447e+02  1.6250755601579635e+02  1.6081740823312290e+02  1.5878820823461498e+02  1.5766451481357385e+02  1.5625500858436064e+02  1.5193308625746604e+02  1.5103785583470670e+02  1.4943522795272844e+02  1.4745256464536902e+02  1.4636182034765741e+02  1.4431917356992471e+02  1.4354400994771601e+02  1.4327701096874353e+02  1.4337716934077369e+02  1.4372751543062279e+02  1.4382262616118757e+02  1.4336191865779386e+02  1.4305114528392008e+02  1.4314441015670761e+02  1.4328284679067269e+02  1.4341759760321546e+02  1.4352371783438858e+02  1.4358724653939746e+02  1.4361046852311176e+02  1.4361123130462059e+02  1.4360818253035973e+02  1.8327900502951738e+02  1.8327838595093925e+02  1.8326662106638082e+02  1.8324064826094406e+02  1.8319808750382765e+02  1.8314298698956975e+02  1.8307960477695667e+02  1.8298782716749375e+02  1.8285850438850849e+02  1.8265770480579761e+02  1.8236281564032902e+02  1.8195317140844003e+02  1.8140480328442655e+02  1.8069720500349248e+02  1.7979371499077794e+02  1.7843484902191469e+02  1.7724525673817155e+02  1.7529403841100853e+02  1.7341548529167997e+02  1.7122130151271114e+02  1.6999396540524094e+02  1.6850539469465093e+02  1.6396523551318836e+02  1.6245678126878099e+02  1.6082695160623695e+02  1.5886907608174965e+02  1.5779136487552094e+02  1.5646296551280767e+02  1.5240982831047569e+02  1.5155394723050290e+02  1.5005440956424172e+02  1.4813027111337155e+02  1.4716269203625546e+02  1.4531716106521091e+02  1.4489674960468523e+02  1.4476200793833323e+02  1.4489871984146450e+02  1.4500987993472532e+02  1.4508872035070812e+02  1.4508152386873118e+02  1.4483893544844165e+02  1.4442130145296065e+02  1.4443167756492039e+02  1.4457036578639054e+02  1.4472576488511274e+02  1.4484506775854214e+02  1.4491668274585675e+02  1.4495414399453091e+02  1.4496293786946865e+02  1.8251611045343765e+02  1.8251143216697608e+02  1.8250032044244861e+02  1.8247638329576719e+02  1.8243569669135547e+02  1.8237255459074422e+02  1.8227716567719423e+02  1.8214070240232752e+02  1.8196587240709559e+02  1.8176442597914314e+02  1.8149408450276513e+02  1.8110911905695568e+02  1.8058365832976040e+02  1.7989560273747185e+02  1.7896241514392193e+02  1.7759666102849229e+02  1.7632129361288361e+02  1.7449468778844982e+02  1.7273295183991283e+02  1.7065610630878783e+02  1.6948182949582679e+02  1.6809531154790096e+02  1.6382043349953736e+02  1.6239928929591218e+02  1.6083511642407544e+02  1.5895219681374104e+02  1.5791972972869542e+02  1.5667011209453142e+02  1.5294002229352031e+02  1.5213208807394736e+02  1.5081035662972124e+02  1.4893438476400189e+02  1.4811906271700008e+02  1.4683239941992383e+02  1.4595104871738428e+02  1.4574270197874645e+02  1.4579569099738052e+02  1.4582698378377896e+02  1.4592410677272738e+02  1.4609767571860320e+02  1.4638670691180829e+02  1.4704149399160102e+02  1.4773788777781272e+02  1.4813955573186649e+02  1.4829736839508868e+02  1.4833011148799093e+02  1.4830002055926764e+02  1.4825210828102414e+02  1.4823052930073777e+02  1.8105382128762113e+02  1.8105950952763945e+02  1.8106405159608079e+02  1.8106011836032417e+02  1.8103778851013504e+02  1.8098611437551716e+02  1.8089650234690771e+02  1.8076376886765084e+02  1.8058868271287125e+02  1.8037273470689354e+02  1.8009923948517061e+02  1.7973003000132547e+02  1.7922416643221575e+02  1.7855064178637497e+02  1.7767810222737401e+02  1.7653901750584578e+02  1.7531685992716720e+02  1.7362180883543229e+02  1.7197547331924400e+02  1.7002957775501099e+02  1.6891156017041456e+02  1.6762486425745340e+02  1.6367032496412241e+02  1.6233473197262029e+02  1.6084140693075690e+02  1.5903717228183385e+02  1.5804818854373227e+02  1.5687515212054518e+02  1.5350124992981227e+02  1.5275037730645209e+02  1.5161242457149368e+02  1.5002912138530758e+02  1.4930037532040180e+02  1.4851372727548267e+02  1.4821367465644752e+02  1.4718903490828353e+02  1.4678979687356792e+02  1.4672401681319704e+02  1.4685750646972744e+02  1.4720337595708835e+02  1.4787583111355161e+02  1.4890061061812190e+02  1.4936337521106029e+02  1.4954206684521017e+02  1.4963786594762831e+02  1.4969979339337485e+02  1.4973655867289588e+02  1.4976020726283673e+02  1.4977642439829711e+02  1.7992910840169048e+02  1.7992758681607066e+02  1.7991947191151272e+02  1.7990635232826605e+02  1.7988275340042435e+02  1.7983621078531229e+02  1.7975390604549571e+02  1.7962722742645977e+02  1.7945176317687853e+02  1.7922295422766246e+02  1.7892647553511742e+02  1.7853424682670206e+02  1.7801221334305473e+02  1.7733764623324529e+02  1.7648084329805022e+02  1.7542256964328240e+02  1.7421678430014677e+02  1.7263717058181419e+02  1.7111204579274116e+02  1.6932732722039765e+02  1.6827785478221463e+02  1.6708388762085394e+02  1.6351532708871358e+02  1.6226244355635825e+02  1.6084491009527162e+02  1.5912490866356174e+02  1.5817414526382547e+02  1.5706969555204785e+02  1.5410333428884974e+02  1.5342110872862801e+02  1.5247157803678678e+02  1.5130972746989306e+02  1.5087909342332352e+02  1.5086216339082674e+02  1.5084957467407446e+02  1.5087311150448207e+02  1.5093209474811823e+02  1.5102445504688333e+02  1.5117755786935754e+02  1.5136011623134698e+02  1.5150800434339499e+02  1.5141002384306162e+02  1.5108967833257725e+02  1.5100997600258489e+02  1.5105442829540479e+02  1.5109347