<?xml version="1.0"?>
<VTKFile type="UnstructuredGrid"  version="0.1"  >
<UnstructuredGrid>
<Piece  NumberOfPoints="2401" NumberOfCells="4608">
<Points>
<DataArray  type="Float64"  NumberOfComponents="3"  format="ascii">0 0 0  0.001070538380698371 0 0  0.004277569313095364 0 0  0.009607359798386061 0 0  0.01703708685546806 0 0  0.02653493525245065 0 0  0.03806023374436157 0 0  0.05156362923366253 0 0  0.06698729810778931 0 0  0.08426519384873815 0 0  0.1033233298543955 0 0  0.1240800962605269 0 0  0.1464466094067445 0 0  0.1703270924499866 0 0  0.1956192854956637 0 0  0.2222148834902257 0 0  0.2500000000000299 0 0  0.2788556548905322 0 0  0.308658283817491 0 0  0.339280267348458 0 0  0.3705904774487813 0 0  0.4024548389919803 0 0  0.4347369038900211 0 0  0.467298435384978 0 0  0.5000000000000517 0 0  0.5327015646151253 0 0  0.5652630961100813 0 0  0.5975451610081212 0 0  0.6294095225513188 0 0  0.6607197326516399 0 0  0.6913417161826045 0 0  0.7211443451095605 0 0  0.7500000000000597 0 0  0.7777851165098603 0 0  0.8043807145044185 0 0  0.829672907550091 0 0  0.8535533905933287 0 0  0.8759199037395413 0 0  0.8966766701456674 0 0  0.9157348061513193 0 0  0.9330127018922625 0 0  0.9484363707663832 0 0  0.961939766255678 0 0  0.9734650647475827 0 0  0.9829629131445586 0 0  0.9903926402016341 0 0  0.9957224306869181 0 0  0.9989294616193084 0 0  1 0 0  0 0.02083333333333333 0  0.001070538380698371 0.02083333333333333 0  0.004277569313095364 0.02083333333333333 0  0.009607359798386061 0.02083333333333333 0  0.01703708685546806 0.02083333333333333 0  0.02653493525245065 0.02083333333333333 0  0.03806023374436157 0.02083333333333333 0  0.05156362923366253 0.02083333333333333 0  0.06698729810778931 0.02083333333333333 0  0.08426519384873815 0.02083333333333333 0  0.1033233298543955 0.02083333333333333 0  0.1240800962605269 0.02083333333333333 0  0.1464466094067445 0.02083333333333333 0  0.1703270924499866 0.02083333333333333 0  0.1956192854956637 0.02083333333333333 0  0.2222148834902257 0.02083333333333333 0  0.2500000000000299 0.02083333333333333 0  0.2788556548905322 0.02083333333333333 0  0.308658283817491 0.02083333333333333 0  0.339280267348458 0.02083333333333333 0  0.3705904774487813 0.02083333333333333 0  0.4024548389919803 0.02083333333333333 0  0.4347369038900211 0.02083333333333333 0  0.467298435384978 0.02083333333333333 0  0.5000000000000517 0.02083333333333333 0  0.5327015646151253 0.02083333333333333 0  0.5652630961100813 0.02083333333333333 0  0.5975451610081212 0.02083333333333333 0  0.6294095225513188 0.02083333333333333 0  0.6607197326516399 0.02083333333333333 0  0.6913417161826045 0.02083333333333333 0  0.7211443451095605 0.02083333333333333 0  0.7500000000000597 0.02083333333333333 0  0.7777851165098603 0.02083333333333333 0  0.8043807145044185 0.02083333333333333 0  0.829672907550091 0.02083333333333333 0  0.8535533905933287 0.02083333333333333 0  0.8759199037395413 0.02083333333333333 0  0.8966766701456674 0.02083333333333333 0  0.9157348061513193 0.02083333333333333 0  0.9330127018922625 0.02083333333333333 0  0.9484363707663832 0.02083333333333333 0  0.961939766255678 0.02083333333333333 0  0.9734650647475827 0.02083333333333333 0  0.9829629131445586 0.02083333333333333 0  0.9903926402016341 0.02083333333333333 0  0.9957224306869181 0.02083333333333333 0  0.9989294616193084 0.02083333333333333 0  1 0.02083333333333333 0  0 0.04166666666666666 0  0.001070538380698371 0.04166666666666666 0  0.004277569313095364 0.04166666666666666 0  0.009607359798386061 0.04166666666666666 0  0.01703708685546806 0.04166666666666666 0  0.02653493525245065 0.04166666666666666 0  0.03806023374436157 0.04166666666666666 0  0.05156362923366253 0.04166666666666666 0  0.06698729810778931 0.04166666666666666 0  0.08426519384873815 0.04166666666666666 0  0.1033233298543955 0.04166666666666666 0  0.1240800962605269 0.04166666666666666 0  0.1464466094067445 0.04166666666666666 0  0.1703270924499866 0.04166666666666666 0  0.1956192854956637 0.04166666666666666 0  0.2222148834902257 0.04166666666666666 0  0.2500000000000299 0.04166666666666666 0  0.2788556548905322 0.04166666666666666 0  0.308658283817491 0.04166666666666666 0  0.339280267348458 0.04166666666666666 0  0.3705904774487813 0.04166666666666666 0  0.4024548389919803 0.04166666666666666 0  0.4347369038900211 0.04166666666666666 0  0.467298435384978 0.04166666666666666 0  0.5000000000000517 0.04166666666666666 0  0.5327015646151253 0.04166666666666666 0  0.5652630961100813 0.04166666666666666 0  0.5975451610081212 0.04166666666666666 0  0.6294095225513188 0.04166666666666666 0  0.6607197326516399 0.04166666666666666 0  0.6913417161826045 0.04166666666666666 0  0.7211443451095605 0.04166666666666666 0  0.7500000000000597 0.04166666666666666 0  0.7777851165098603 0.04166666666666666 0  0.8043807145044185 0.04166666666666666 0  0.829672907550091 0.04166666666666666 0  0.8535533905933287 0.04166666666666666 0  0.8759199037395413 0.04166666666666666 0  0.8966766701456674 0.04166666666666666 0  0.9157348061513193 0.04166666666666666 0  0.9330127018922625 0.04166666666666666 0  0.9484363707663832 0.04166666666666666 0  0.961939766255678 0.04166666666666666 0  0.9734650647475827 0.04166666666666666 0  0.9829629131445586 0.04166666666666666 0  0.9903926402016341 0.04166666666666666 0  0.9957224306869181 0.04166666666666666 0  0.9989294616193084 0.04166666666666666 0  1 0.04166666666666666 0  0 0.0625 0  0.001070538380698371 0.0625 0  0.004277569313095364 0.0625 0  0.009607359798386061 0.0625 0  0.01703708685546806 0.0625 0  0.02653493525245065 0.0625 0  0.03806023374436157 0.0625 0  0.05156362923366253 0.0625 0  0.06698729810778931 0.0625 0  0.08426519384873815 0.0625 0  0.1033233298543955 0.0625 0  0.1240800962605269 0.0625 0  0.1464466094067445 0.0625 0  0.1703270924499866 0.0625 0  0.1956192854956637 0.0625 0  0.2222148834902257 0.0625 0  0.2500000000000299 0.0625 0  0.2788556548905322 0.0625 0  0.308658283817491 0.0625 0  0.339280267348458 0.0625 0  0.3705904774487813 0.0625 0  0.4024548389919803 0.0625 0  0.4347369038900211 0.0625 0  0.467298435384978 0.0625 0  0.5000000000000517 0.0625 0  0.5327015646151253 0.0625 0  0.5652630961100813 0.0625 0  0.5975451610081212 0.0625 0  0.6294095225513188 0.0625 0  0.6607197326516399 0.0625 0  0.6913417161826045 0.0625 0  0.7211443451095605 0.0625 0  0.7500000000000597 0.0625 0  0.7777851165098603 0.0625 0  0.8043807145044185 0.0625 0  0.829672907550091 0.0625 0  0.8535533905933287 0.0625 0  0.8759199037395413 0.0625 0  0.8966766701456674 0.0625 0  0.9157348061513193 0.0625 0  0.9330127018922625 0.0625 0  0.9484363707663832 0.0625 0  0.961939766255678 0.0625 0  0.9734650647475827 0.0625 0  0.9829629131445586 0.0625 0  0.9903926402016341 0.0625 0  0.9957224306869181 0.0625 0  0.9989294616193084 0.0625 0  1 0.0625 0  0 0.08333333333333333 0  0.001070538380698371 0.08333333333333333 0  0.004277569313095364 0.08333333333333333 0  0.009607359798386061 0.08333333333333333 0  0.01703708685546806 0.08333333333333333 0  0.02653493525245065 0.08333333333333333 0  0.03806023374436157 0.08333333333333333 0  0.05156362923366253 0.08333333333333333 0  0.06698729810778931 0.08333333333333333 0  0.08426519384873815 0.08333333333333333 0  0.1033233298543955 0.08333333333333333 0  0.1240800962605269 0.08333333333333333 0  0.1464466094067445 0.08333333333333333 0  0.1703270924499866 0.08333333333333333 0  0.1956192854956637 0.08333333333333333 0  0.2222148834902257 0.08333333333333333 0  0.2500000000000299 0.08333333333333333 0  0.2788556548905322 0.08333333333333333 0  0.308658283817491 0.08333333333333333 0  0.339280267348458 0.08333333333333333 0  0.3705904774487813 0.08333333333333333 0  0.4024548389919803 0.08333333333333333 0  0.4347369038900211 0.08333333333333333 0  0.467298435384978 0.08333333333333333 0  0.5000000000000517 0.08333333333333333 0  0.5327015646151253 0.08333333333333333 0  0.5652630961100813 0.08333333333333333 0  0.5975451610081212 0.08333333333333333 0  0.6294095225513188 0.08333333333333333 0  0.6607197326516399 0.08333333333333333 0  0.6913417161826045 0.08333333333333333 0  0.7211443451095605 0.08333333333333333 0  0.7500000000000597 0.08333333333333333 0  0.7777851165098603 0.08333333333333333 0  0.8043807145044185 0.08333333333333333 0  0.829672907550091 0.08333333333333333 0  0.8535533905933287 0.08333333333333333 0  0.8759199037395413 0.08333333333333333 0  0.8966766701456674 0.08333333333333333 0  0.9157348061513193 0.08333333333333333 0  0.9330127018922625 0.08333333333333333 0  0.9484363707663832 0.08333333333333333 0  0.961939766255678 0.08333333333333333 0  0.9734650647475827 0.08333333333333333 0  0.9829629131445586 0.08333333333333333 0  0.9903926402016341 0.08333333333333333 0  0.9957224306869181 0.08333333333333333 0  0.9989294616193084 0.08333333333333333 0  1 0.08333333333333333 0  0 0.1041666666666667 0  0.001070538380698371 0.1041666666666667 0  0.004277569313095364 0.1041666666666667 0  0.009607359798386061 0.1041666666666667 0  0.01703708685546806 0.1041666666666667 0  0.02653493525245065 0.1041666666666667 0  0.03806023374436157 0.1041666666666667 0  0.05156362923366253 0.1041666666666667 0  0.06698729810778931 0.1041666666666667 0  0.08426519384873815 0.1041666666666667 0  0.1033233298543955 0.1041666666666667 0  0.1240800962605269 0.1041666666666667 0  0.1464466094067445 0.1041666666666667 0  0.1703270924499866 0.1041666666666667 0  0.1956192854956637 0.1041666666666667 0  0.2222148834902257 0.1041666666666667 0  0.2500000000000299 0.1041666666666667 0  0.2788556548905322 0.1041666666666667 0  0.308658283817491 0.1041666666666667 0  0.339280267348458 0.1041666666666667 0  0.3705904774487813 0.1041666666666667 0  0.4024548389919803 0.1041666666666667 0  0.4347369038900211 0.1041666666666667 0  0.467298435384978 0.1041666666666667 0  0.5000000000000517 0.1041666666666667 0  0.5327015646151253 0.1041666666666667 0  0.5652630961100813 0.1041666666666667 0  0.5975451610081212 0.1041666666666667 0  0.62
[...]
<PointData  Scalars="f_6853517"> 
<DataArray  type="Float64"  Name="f_6853517"  format="ascii">1.1671416786729131e+02  1.1671550238421815e+02  1.1672252083321578e+02  1.1675359925146910e+02  1.1682675174281238e+02  1.1697560116529554e+02  1.1724402460804940e+02  1.1767451638121238e+02  1.1814653295961404e+02  1.1877965231756841e+02  1.1970731268272687e+02  1.2075556186147297e+02  1.2148728795341852e+02  1.2290198001923807e+02  1.2419647535830136e+02  1.2574322337280742e+02  1.2676708644479504e+02  1.2877020448493670e+02  1.3050367186848280e+02  1.3264365445682131e+02  1.3386967123712796e+02  1.3598003882721227e+02  1.3952311801416704e+02  1.4157319521320130e+02  1.4325744191224848e+02  1.4554936629891986e+02  1.4696665273934394e+02  1.4935616824473556e+02  1.5230290743518901e+02  1.5403920179536084e+02  1.5591331760098242e+02  1.5923303695758815e+02  1.6109865417240482e+02  1.6225907361039810e+02  1.6389924748441658e+02  1.6503563204643933e+02  1.6643136292517491e+02  1.6732877765536097e+02  1.6818357441886778e+02  1.6873816509142975e+02  1.6920041708010112e+02  1.6954190989512747e+02  1.6973279716932439e+02  1.6981231590102377e+02  1.6982679800277060e+02  1.6981124691696712e+02  1.6979096060163076e+02  1.6978371829499315e+02  1.6978819497091851e+02  1.1677617372111064e+02  1.1677494307522863e+02  1.1677567473835005e+02  1.1678347103517081e+02  1.1681399475086961e+02  1.1690002738964731e+02  1.1708730284630536e+02  1.1754475312531920e+02  1.1802178447142583e+02  1.1865729471824318e+02  1.1986543368236484e+02  1.2067842529596123e+02  1.2142752784458752e+02  1.2278423436962262e+02  1.2413067228062650e+02  1.2568348275611541e+02  1.2672782223094052e+02  1.2866875687828619e+02  1.3047063544372656e+02  1.3259131907708050e+02  1.3385995375332996e+02  1.3571757581783385e+02  1.3967044807623475e+02  1.4156434437720247e+02  1.4327786809590214e+02  1.4550348180833916e+02  1.4692084706430836e+02  1.4900868827426629e+02  1.5258929533871463e+02  1.5408379079189541e+02  1.5604499260849386e+02  1.5869459021922478e+02  1.6111180214765102e+02  1.6240082542020849e+02  1.6409954732310200e+02  1.6521031883058239e+02  1.6655326247667281e+02  1.6728591639975744e+02  1.6825747932637043e+02  1.6896226600875983e+02  1.6942215900318851e+02  1.6972369159439762e+02  1.6992702018341606e+02  1.6997985060451066e+02  1.6998047822138722e+02  1.6996559373574877e+02  1.6995240438371752e+02  1.6994637961886320e+02  1.6994287320823679e+02  1.1688052624343899e+02  1.1688212222455923e+02  1.1688267482310134e+02  1.1688321959441943e+02  1.1689588659112381e+02  1.1694693575560771e+02  1.1707597376238857e+02  1.1744946735392757e+02  1.1788407430044977e+02  1.1835303094372716e+02  1.1998358939901952e+02  1.2066945653199545e+02  1.2130071133796558e+02  1.2267053651465235e+02  1.2401099967891587e+02  1.2557997358922138e+02  1.2661288938521008e+02  1.2852735119472749e+02  1.3036767382167190e+02  1.3249190939742863e+02  1.3375836281977956e+02  1.3547496339135742e+02  1.3978322472858881e+02  1.4155222323420153e+02  1.4327612600340797e+02  1.4544239757742872e+02  1.4679140845212413e+02  1.4851637555031627e+02  1.5290672290671887e+02  1.5415051081674287e+02  1.5609589990335687e+02  1.5857310266147977e+02  1.6061137071632180e+02  1.6276558282168997e+02  1.6438578956549890e+02  1.6546112133789734e+02  1.6671035770734596e+02  1.6733214646254663e+02  1.6811080386463166e+02  1.6935040722763074e+02  1.6964563362984734e+02  1.6990112918147352e+02  1.7010657974983590e+02  1.7010076762515291e+02  1.7007379278368109e+02  1.7004632487876100e+02  1.7003020478686776e+02  1.7002589494134355e+02  1.7002718215757579e+02  1.1715217721612102e+02  1.1715130029927539e+02  1.1714644362737627e+02  1.1713873615198091e+02  1.1713381507474082e+02  1.1713359957515452e+02  1.1723197545294008e+02  1.1752389633846091e+02  1.1791417508000595e+02  1.1814387839528679e+02  1.1999877612417436e+02  1.2066705062217048e+02  1.2125799839492976e+02  1.2258925185218229e+02  1.2391927463669190e+02  1.2549614469733092e+02  1.2651150395301650e+02  1.2838552154007058e+02  1.3024021175266572e+02  1.3239061002970814e+02  1.3365286841703929e+02  1.3536336794888774e+02  1.3976688674597025e+02  1.4151147770174754e+02  1.4323258639121306e+02  1.4536806214406664e+02  1.4665743712774102e+02  1.4829232376968451e+02  1.5302855785547368e+02  1.5416274889081919e+02  1.5611314127529528e+02  1.5856508158419209e+02  1.6017855482553321e+02  1.6317708175517356e+02  1.6453136202717036e+02  1.6560708495545174e+02  1.6679074663112650e+02  1.6736266298155945e+02  1.6807628393704579e+02  1.6953962488922386e+02  1.6969401918268073e+02  1.6991876234006745e+02  1.7006679951079332e+02  1.7003672289092478e+02  1.6999432417428852e+02  1.6995711154033128e+02  1.6993751545959833e+02  1.6993183797393647e+02  1.6993152378365554e+02  1.1747034545635934e+02  1.1746835017263710e+02  1.1746801853421567e+02  1.1746265111477754e+02  1.1744496500532995e+02  1.1743535678582759e+02  1.1750995427662711e+02  1.1771613786158817e+02  1.1804297272271094e+02  1.1817971235197795e+02  1.2000891933153565e+02  1.2069579964843624e+02  1.2126796505187130e+02  1.2257288237724971e+02  1.2388956274750454e+02  1.2544995965963565e+02  1.2643897589719793e+02  1.2827225978685132e+02  1.3013046541130967e+02  1.3230027609905139e+02  1.3356005358098636e+02  1.3528633893392868e+02  1.3968635857469204e+02  1.4144547287479094e+02  1.4316052126227365e+02  1.4527524516725944e+02  1.4653141482806760e+02  1.4814771564311687e+02  1.5302300305242557e+02  1.5413023736484962e+02  1.5608013627251722e+02  1.5852279587171111e+02  1.6004018977405073e+02  1.6338743717395525e+02  1.6454346337580316e+02  1.6559269804469841e+02  1.6678181713534545e+02  1.6733554254743345e+02  1.6804275508731482e+02  1.6954151408025331e+02  1.6965085172261252e+02  1.6981638019740481e+02  1.6988382078950835e+02  1.6984223664614453e+02  1.6979743022212270e+02  1.6976134547854360e+02  1.6974333806945614e+02  1.6973921546734690e+02  1.6974003297344458e+02  1.1777948346778572e+02  1.1778347983750193e+02  1.1776941824922491e+02  1.1774261563705970e+02  1.1772635500106686e+02  1.1777364732979655e+02  1.1787919872116721e+02  1.1800795397012500e+02  1.1825513828139846e+02  1.1836207964077056e+02  1.2010985212447349e+02  1.2079782212314564e+02  1.2136003739108436e+02  1.2264056099099354e+02  1.2393168674692122e+02  1.2546363916101032e+02  1.2642787319854766e+02  1.2822042647915060e+02  1.3006315779168318e+02  1.3223213003208241e+02  1.3348744576369793e+02  1.3521859197671259e+02  1.3959022507943013e+02  1.4135612003839705e+02  1.4306299058000903e+02  1.4516194365707986e+02  1.4639961957909972e+02  1.4801562478270299e+02  1.5294510343296383e+02  1.5404414599537685e+02  1.5598137517981158e+02  1.5844134609316635e+02  1.5995199557014388e+02  1.6339664835324953e+02  1.6447517588600130e+02  1.6549959952046484e+02  1.6669446133656706e+02  1.6723913652262672e+02  1.6792564026908403e+02  1.6937928494335017e+02  1.6949079745232746e+02  1.6958758323015712e+02  1.6961909705033747e+02  1.6961615460280100e+02  1.6955334574937427e+02  1.6948218720584021e+02  1.6944163179488680e+02  1.6942743961065202e+02  1.6942387707178526e+02  1.1902475189726310e+02  1.1902134074976112e+02  1.1901720139027087e+02  1.1899061020214920e+02  1.1891044966636014e+02  1.1874125545422390e+02  1.1836023655877901e+02  1.1838228740237061e+02  1.1856773509776664e+02  1.1875338547349889e+02  1.2033236926359758e+02  1.2100826239510909e+02  1.2155856167029671e+02  1.2280367706884512e+02  1.2405687759272041e+02  1.2555314357871684e+02  1.2649457829036129e+02  1.2824914427172089e+02  1.3006065941407638e+02  1.3220198107919526e+02  1.3344064606788160e+02  1.3514916255120934e+02  1.3949902528541344e+02  1.4125174788315664e+02  1.4294628187836943e+02  1.4502883234921745e+02  1.4625218086831924e+02  1.4786624756978810e+02  1.5280372606121338e+02  1.5389920484456607e+02  1.5582021963978559e+02  1.5829994691383945e+02  1.5981125449704561e+02  1.6326883416789030e+02  1.6430435290508413e+02  1.6532147456418511e+02  1.6653562099415271e+02  1.6708743586985364e+02  1.6772766054169745e+02  1.6894586040725429e+02  1.6901074320322505e+02  1.6908280889747391e+02  1.6899072832097673e+02  1.6878857454260361e+02  1.6858265691716019e+02  1.6848150874294288e+02  1.6844765942804887e+02  1.6844372526254983e+02  1.6844784924634297e+02  1.1961977249771422e+02  1.1962089962362421e+02  1.1962359498714740e+02  1.1962149463828376e+02  1.1960194187255699e+02  1.1953967850074869e+02  1.1940102875124234e+02  1.1913698810250335e+02  1.1917008700563640e+02  1.1950763823586793e+02  1.2072036362670698e+02  1.2134800674253941e+02  1.2187546123398594e+02  1.2306802034020335e+02  1.2427151274437767e+02  1.2572503834792562e+02  1.2664416724074482e+02  1.2836071712832876e+02  1.3013052449705614e+02  1.3222173075481683e+02  1.3342831702399573e+02  1.3508270139075242e+02  1.3942269718757612e+02  1.4114038958724092e+02  1.4281576011038828e+02  1.4487703642224500e+02  1.4608400472927980e+02  1.4768524846404910e+02  1.5260334738073971e+02  1.5369369423845569e+02  1.5559689112645151e+02  1.5808059153633400e+02  1.5958175877592589e+02  1.6301706747512713e+02  1.6400042148008902e+02  1.6503186006840079e+02  1.6629557001870029e+02  1.6689396583195293e+02  1.6747728718242371e+02  1.6850032338097742e+02  1.6828541244199226e+02  1.6819214005738064e+02  1.6801664973957469e+02  1.6786538441214785e+02  1.6777973899513120e+02  1.6774662918947195e+02  1.6772960290164258e+02  1.6772329947655339e+02  1.6772108495567085e+02  1.2023291814669176e+02  1.2023464819396241e+02  1.2023519563295099e+02  1.2023383529390929e+02  1.2023534140097735e+02  1.2026225244812514e+02  1.2039470266275765e+02  1.2064320828464430e+02  1.2088803600683427e+02  1.2113122165893522e+02  1.2142113900218774e+02  1.2180997394738499e+02  1.2231271807652675e+02  1.2343110227721156e+02  1.2457635752450390e+02  1.2597977539730682e+02  1.2687454395113193e+02  1.2854803014102390e+02  1.3026767826449446e+02  1.3229490051253259e+02  1.3345878179391502e+02  1.3503656822649822e+02  1.3936152273576894e+02  1.4102717710533707e+02  1.4267633188367083e+02  1.4470897464320134e+02  1.4589449483760583e+02  1.4746836478898001e+02  1.5234541136579963e+02  1.5342535301671995e+02  1.5530914951404046e+02  1.5777661103379913e+02  1.5925218316379741e+02  1.6264731420765867e+02  1.6355330676788370e+02  1.6459589931925566e+02  1.6589904393941063e+02  1.6658598839228301e+02  1.6710937937275884e+02  1.6777958044713932e+02  1.6769401774755462e+02  1.6755235928651263e+02  1.6738822137323555e+02  1.6728375811460052e+02  1.6722048600579259e+02  1.6718788988398214e+02  1.6717531394181393e+02  1.6717519815358318e+02  1.6717694412171576e+02  1.2129006659072505e+02  1.2128490130724454e+02  1.2127464334284987e+02  1.2126241931234868e+02  1.2125093049610192e+02  1.2123620013929862e+02  1.2125604050594077e+02  1.2143107986522301e+02  1.2164553836921031e+02  1.2187103120493624e+02  1.2211634674197916e+02  1.2241324204782214e+02  1.2285473436404779e+02  1.2388759060929327e+02  1.2497176903889253e+02  1.2631591583665987e+02  1.2718215324808912e+02  1.2880446625764327e+02  1.3046536585266520e+02  1.3241985007129145e+02  1.3353630478670325e+02  1.3502758586101558e+02  1.3931134655467724e+02  1.4091493919588314e+02  1.4253154433011611e+02  1.4452728831809301e+02  1.4568569963462474e+02  1.4721726430294655e+02  1.5203004193530413e+02  1.5309331297296532e+02  1.5495474631537633e+02  1.5738933322323342e+02  1.5881577077793315e+02  1.6217165759401726e+02  1.6300380577240909e+02  1.6394281281673312e+02  1.6517455407890631e+02  1.6598136637691780e+02  1.6659908054271307e+02  1.6676669787423040e+02  1.6677792312959639e+02  1.6690611427579560e+02  1.6682389363752665e+02  1.6669942057032830e+02  1.6659136622226123e+02  1.6652169810821010e+02  1.6648262552247215e+02  1.6646246308762110e+02  1.6645532031687185e+02  1.2208189181796941e+02  1.2208677401292084e+02  1.2209302086042349e+02  1.2209564422841547e+02  1.2208522777945385e+02  1.2206062343873650e+02  1.2203949102615708e+02  1.2208525448139254e+02  1.2223975219698912e+02  1.2244574246458778e+02  1.2270825305851342e+02  1.2304637626998634e+02  1.2352470798125331e+02  1.2445362156925636e+02  1.2546689532783130e+02  1.2673241497465189e+02  1.2756497105918341e+02  1.2912729603112427e+02  1.3071976008005566e+02  1.3259420818801635e+02  1.3366173578045542e+02  1.3506371452653002e+02  1.3926813333749087e+02  1.4080463906025503e+02  1.4238315747259318e+02  1.4433429893051823e+02  1.4546082722855957e+02  1.4693652588876836e+02  1.5165736086548222e+02  1.5269811466317151e+02  1.5452986940936120e+02  1.5691393027213141e+02  1.5829085303706532e+02  1.6158891521564300e+02  1.6241360762069439e+02  1.6315729770826550e+02  1.6418436187428080e+02  1.6488060296668337e+02  1.6541064496801658e+02  1.6506289822485718e+02  1.6477274565113237e+02  1.6459154258938869e+02  1.6446274421774061e+02  1.6441203556869579e+02  1.6439801832810713e+02  1.6439888021052451e+02  1.6440704621911394e+02  1.6442503814428696e+02  1.6443795235159595e+02  1.2287612450714246e+02  1.2286867547220164e+02  1.2283232780273549e+02  1.2278464081744806e+02  1.2277827406485122e+02  1.2290467999618716e+02  1.2317866922688165e+02  1.2341907614354950e+02  1.2356991288672029e+02  1.2373345127296470e+02  1.2394129734294559e+02  1.2422133735214959e+02  1.2463013102253922e+02  1.2522755971252883e+02  1.2607549765229255e+02  1.2722951597929026e+02  1.2802249519495621e+02  1.2951662943414439e+02  1.3102937029155592e+02  1.3281613403237864e+02  1.3383418911886878e+02  1.3514550961596990e+02  1.3922949020770577e+02  1.4069613941623032e+02  1.4223154830571625e+02  1.4413184744360782e+02  1.4522316927720988e+02  1.4663091213422129e+02  1.5122611943917491e+02  1.5224063439939903e+02  1.5403386079866965e+02  1.5635494880207403e+02  1.5769986264726140e+02  1.6077829924098327e+02  1.6177929294737734e+02  1.6237355770507838e+02  1.6305917359971886e+02  1.6366116707715372e+02  1.6413765274573814e+02  1.6396781446248929e+02  1.6379448596750851e+02  1.6368103341573465e+02  1.6360359889772798e+02  1.6354955830416682e+02  1.6350780704980318e+02  1.6348143165743579e+02  1.6346616295847448e+02  1.6345692884192758e+02  1.6344908230138643e+02  1.2552490124375771e+02  1.2552864526598589e+02  1.2553776492275998e+02  1.2553922989212890e+02  1.2551649364562522e+02  1.2545733134012244e+02  1.2532960431684981e+02  1.2506850578398769e+02  1.2491978683825609e+02  1.2496415997054646e+02  1.2510191092159175e+02  1.2532689395262999e+02  1.2566327148868210e+02  1.2615644376483452e+02  1.2683417636942730e+02  1.2779789308446973e+02  1.2855578499218811e+02  1.2997283056147825e+02  1.3139330355527244e+02  1.3308410816022254e+02  1.3405214344688190e+02  1.3527055519325697e+02  1.3919399088838654e+02  1.4058886188126036e+02  1.4207635102612352e+02  1.4392123888968140e+02  1.4497557350963618e+02  1.4630840817945696e+02  1.5073031182502763e+02  1.5171801793592482e+02  1.5346362995153007e+02  1.5571914248561021e+02  1.5699741723615867e+02  1.5959018478006342e+02  1.6073488724817443e+02  1.6130269024302996e+02  1.6156955302909222e+02  1.6158310742675900e+02  1.6178370857072753e+02  1.6243912886902226e+02  1.6293027025412127e+02  1.6295557402664443e+02  1.6291097284175956e+02  1.6284842640732691e+02  1.6279293787192557e+02  1.6275875508238846e+02  1.6274772940068479e+02  1.6274997361543251e+02  1.6275398375571146e+02  1.2625156499231068e+02  1.2625105379639874e+02  1.2625835071278308e+02  1.2627234318666019e+02  1.2628903761339176e+02  1.2629948206185485e+02  1.2629440916193327e+02  1.2628276556519738e+02  1.2625753075163381e+02  1.2627814795396341e+02  1.2637304793299843e+02  1.2654798245330792e+02  1.2681715424209214e+02  1.2718706270967385e+02  1.2766749083737146e+02  1.2841708173130149e+02  1.2917018277815441e+02  1.3049434516425899e+02  1.3181051702837837e+02  1.3339695300596972e+02  1.3431414331403937e+02  1.3543690989903169e+02  1.3916020457232170e+02  1.4048217200724068e+02  1.4191694807317714e+02  1.4370322175913500e+02  1.4472054239057542e+02  1.4597788033190741e+02  1.5016668083672482e+02  1.5113371735140996e+02  1.5279683515462455e+02  1.5504465147423673e+02  1.5623327953566940e+02  1.5869548129989730e+02  1.5955069767136462e+02  1.6004387269677392e+02  1.6024634000001436e+02  1.6043138630279205e+02  1.6057144524358091e+02  1.6077807733953216e+02  1.6123219216215190e+02  1.6184669373189269e+02  1.6195734936583816e+02  1.6191475834477774e+02  1.6182979115573602e+02  1.6175487809590098e+02  1.6170463776756611e+02  1.6167309495620344e+02  1.6166190950415452e+02  1.2693537575735860e+02  1.2693961416695703e+02  1.2694694515509580e+02  1.2695812489493349e+02  1.2697050382745417e+02  1.2698292844666538e+02  1.2699820628547114e+02  1.2701783881631488e+02  1.2703531199747107e+02  1.2705048174625811e+02  1.2711274190304030e+02  1.2725532699649685e+02  1.2749510305419550e+02  1.2784464113229375e+02  1.2835233022230224e+02  1.2911390424652575e+02  1.2987597623900848e+02  1.3107670346804790e+02  1.3228151268558130e+02  1.3375470764347904e+02  1.3461950106659893e+02  1.3564495915659691e+02  1.3912637004176878e+02  1.4037548516269626e+02  1.4175275557217535e+02  1.4347821096634394e+02  1.4446010707522316e+02  1.4564539814436503e+02  1.4954862946251248e+02  1.5048956443451453e+02  1.5199041793984276e+02  1.5425876654272744e+02  1.5535073138667644e+02  1.5723124400642322e+02  1.5862356537406654e+02  1.5919192451230620e+02  1.5943781090316588e+02  1.5967183468685784e+02  1.5980221407537533e+02  1.5984296624767180e+02  1.5979842531713624e+02  1.5955163578900346e+02  1.5914953993677335e+02  1.5889063381589523e+02  1.5880344321273287e+02  1.5880185693071294e+02  1.5883953505950390e+02  1.5888454066837102e+02  1.5890649744015226e+02  1.2826570852373942e+02  1.2825978722483717e+02  1.2825195411636346e+02  1.2824261309039377e+02  1.2823357129625293e+02  1.2822810470657367e+02  1.2822878106148895e+02  1.2823663944694007e+02  1.2824977406729093e+02  1.2826995762160766e+02  1.2831684992690222e+02  1.2842383782931191e+02  1.2862399175312549e+02  1.2894171482468320e+02  1.2938601649303524e+02  1.2997390438187497e+02  1.3065394882528011e+02  1.3172026104987427e+02  1.3281315961781800e+02  1.3416075448892514e+02  1.3496915001592876e+02  1.3589816973156971e+02  1.3909057103338691e+02  1.4026805311164779e+02  1.4158299741106336e+02  1.4324571526308318e+02  1.4419513585566656e+02  1.4531227444023426e+02  1.4890140948458370e+02  1.4981086906717292e+02  1.5115502342102033e+02  1.5319868272346923e+02  1.5429082073242705e+02  1.5567061500048510e+02  1.5647189740555899e+02  1.5788740886566501e+02  1.5855197003536253e+02  1.5887622960795318e+02  1.5898683049363143e+02  1.5889069297560806e+02  1.5853738625472843e+02  1.5796587686600387e+02  1.5771656909103814e+02  1.5762775071434893e+02  1.5758178421370508e+02  1.5754732824843643e+02  1.5752309017729741e+02  1.5750381314432832e+02  1.5748789937439923e+02  1.2928560707078188e+02  1.2928862522369096e+02  1.2929289331890220e+02  1.2929191359917979e+02  1.2928254922833605e+02  1.2926799717992554e+02  1.2925477131327051e+02  1.2924844379135888e+02  1.2925304578416029e+02  1.2927484921367127e+02  1.2932890500064752e+02  1.2943907799883274e+02  1.2963293307348064e+02  1.2993142571183725e+02  1.3035392908402798e+02  1.3088402670475040e+02  1.3150921866220347e+02  1.3245908772973470e+02  1.3342980749809311e+02  1.3462655246425862e+02  1.3536667160852147e+02  1.3620345335982077e+02  1.3905122788562457e+02  1.4015874768349948e+02  1.4140664798641242e+02  1.4300354151581402e+02  1.4392718228760083e+02  1.4498751723002303e+02  1.4821341675979090e+02  1.4909075732155890e+02  1.5029593136009191e+02  1.5198800639914774e+02  1.5289495790571976e+02  1.5352784540493175e+02  1.5399539547903342e+02  1.5434509219852362e+02  1.5463200145521733e+02  1.5487834266137324e+02  1.5504580845790312e+02  1.5516236498595524e+02  1.5528375262363761e+02  1.5561238260188318e+02  1.5609831833169901e+02  1.5628857700582455e+02  1.5630678453434871e+02  1.5630027