<?xml version="1.0"?>
<VTKFile type="UnstructuredGrid"  version="0.1"  >
<UnstructuredGrid>
<Piece  NumberOfPoints="2401" NumberOfCells="4608">
<Points>
<DataArray  type="Float64"  NumberOfComponents="3"  format="ascii">0 0 0  0.001070538380698371 0 0  0.004277569313095364 0 0  0.009607359798386061 0 0  0.01703708685546806 0 0  0.02653493525245065 0 0  0.03806023374436157 0 0  0.05156362923366253 0 0  0.06698729810778931 0 0  0.08426519384873815 0 0  0.1033233298543955 0 0  0.1240800962605269 0 0  0.1464466094067445 0 0  0.1703270924499866 0 0  0.1956192854956637 0 0  0.2222148834902257 0 0  0.2500000000000299 0 0  0.2788556548905322 0 0  0.308658283817491 0 0  0.339280267348458 0 0  0.3705904774487813 0 0  0.4024548389919803 0 0  0.4347369038900211 0 0  0.467298435384978 0 0  0.5000000000000517 0 0  0.5327015646151253 0 0  0.5652630961100813 0 0  0.5975451610081212 0 0  0.6294095225513188 0 0  0.6607197326516399 0 0  0.6913417161826045 0 0  0.7211443451095605 0 0  0.7500000000000597 0 0  0.7777851165098603 0 0  0.8043807145044185 0 0  0.829672907550091 0 0  0.8535533905933287 0 0  0.8759199037395413 0 0  0.8966766701456674 0 0  0.9157348061513193 0 0  0.9330127018922625 0 0  0.9484363707663832 0 0  0.961939766255678 0 0  0.9734650647475827 0 0  0.9829629131445586 0 0  0.9903926402016341 0 0  0.9957224306869181 0 0  0.9989294616193084 0 0  1 0 0  0 0.02083333333333333 0  0.001070538380698371 0.02083333333333333 0  0.004277569313095364 0.02083333333333333 0  0.009607359798386061 0.02083333333333333 0  0.01703708685546806 0.02083333333333333 0  0.02653493525245065 0.02083333333333333 0  0.03806023374436157 0.02083333333333333 0  0.05156362923366253 0.02083333333333333 0  0.06698729810778931 0.02083333333333333 0  0.08426519384873815 0.02083333333333333 0  0.1033233298543955 0.02083333333333333 0  0.1240800962605269 0.02083333333333333 0  0.1464466094067445 0.02083333333333333 0  0.1703270924499866 0.02083333333333333 0  0.1956192854956637 0.02083333333333333 0  0.2222148834902257 0.02083333333333333 0  0.2500000000000299 0.02083333333333333 0  0.2788556548905322 0.02083333333333333 0  0.308658283817491 0.02083333333333333 0  0.339280267348458 0.02083333333333333 0  0.3705904774487813 0.02083333333333333 0  0.4024548389919803 0.02083333333333333 0  0.4347369038900211 0.02083333333333333 0  0.467298435384978 0.02083333333333333 0  0.5000000000000517 0.02083333333333333 0  0.5327015646151253 0.02083333333333333 0  0.5652630961100813 0.02083333333333333 0  0.5975451610081212 0.02083333333333333 0  0.6294095225513188 0.02083333333333333 0  0.6607197326516399 0.02083333333333333 0  0.6913417161826045 0.02083333333333333 0  0.7211443451095605 0.02083333333333333 0  0.7500000000000597 0.02083333333333333 0  0.7777851165098603 0.02083333333333333 0  0.8043807145044185 0.02083333333333333 0  0.829672907550091 0.02083333333333333 0  0.8535533905933287 0.02083333333333333 0  0.8759199037395413 0.02083333333333333 0  0.8966766701456674 0.02083333333333333 0  0.9157348061513193 0.02083333333333333 0  0.9330127018922625 0.02083333333333333 0  0.9484363707663832 0.02083333333333333 0  0.961939766255678 0.02083333333333333 0  0.9734650647475827 0.02083333333333333 0  0.9829629131445586 0.02083333333333333 0  0.9903926402016341 0.02083333333333333 0  0.9957224306869181 0.02083333333333333 0  0.9989294616193084 0.02083333333333333 0  1 0.02083333333333333 0  0 0.04166666666666666 0  0.001070538380698371 0.04166666666666666 0  0.004277569313095364 0.04166666666666666 0  0.009607359798386061 0.04166666666666666 0  0.01703708685546806 0.04166666666666666 0  0.02653493525245065 0.04166666666666666 0  0.03806023374436157 0.04166666666666666 0  0.05156362923366253 0.04166666666666666 0  0.06698729810778931 0.04166666666666666 0  0.08426519384873815 0.04166666666666666 0  0.1033233298543955 0.04166666666666666 0  0.1240800962605269 0.04166666666666666 0  0.1464466094067445 0.04166666666666666 0  0.1703270924499866 0.04166666666666666 0  0.1956192854956637 0.04166666666666666 0  0.2222148834902257 0.04166666666666666 0  0.2500000000000299 0.04166666666666666 0  0.2788556548905322 0.04166666666666666 0  0.308658283817491 0.04166666666666666 0  0.339280267348458 0.04166666666666666 0  0.3705904774487813 0.04166666666666666 0  0.4024548389919803 0.04166666666666666 0  0.4347369038900211 0.04166666666666666 0  0.467298435384978 0.04166666666666666 0  0.5000000000000517 0.04166666666666666 0  0.5327015646151253 0.04166666666666666 0  0.5652630961100813 0.04166666666666666 0  0.5975451610081212 0.04166666666666666 0  0.6294095225513188 0.04166666666666666 0  0.6607197326516399 0.04166666666666666 0  0.6913417161826045 0.04166666666666666 0  0.7211443451095605 0.04166666666666666 0  0.7500000000000597 0.04166666666666666 0  0.7777851165098603 0.04166666666666666 0  0.8043807145044185 0.04166666666666666 0  0.829672907550091 0.04166666666666666 0  0.8535533905933287 0.04166666666666666 0  0.8759199037395413 0.04166666666666666 0  0.8966766701456674 0.04166666666666666 0  0.9157348061513193 0.04166666666666666 0  0.9330127018922625 0.04166666666666666 0  0.9484363707663832 0.04166666666666666 0  0.961939766255678 0.04166666666666666 0  0.9734650647475827 0.04166666666666666 0  0.9829629131445586 0.04166666666666666 0  0.9903926402016341 0.04166666666666666 0  0.9957224306869181 0.04166666666666666 0  0.9989294616193084 0.04166666666666666 0  1 0.04166666666666666 0  0 0.0625 0  0.001070538380698371 0.0625 0  0.004277569313095364 0.0625 0  0.009607359798386061 0.0625 0  0.01703708685546806 0.0625 0  0.02653493525245065 0.0625 0  0.03806023374436157 0.0625 0  0.05156362923366253 0.0625 0  0.06698729810778931 0.0625 0  0.08426519384873815 0.0625 0  0.1033233298543955 0.0625 0  0.1240800962605269 0.0625 0  0.1464466094067445 0.0625 0  0.1703270924499866 0.0625 0  0.1956192854956637 0.0625 0  0.2222148834902257 0.0625 0  0.2500000000000299 0.0625 0  0.2788556548905322 0.0625 0  0.308658283817491 0.0625 0  0.339280267348458 0.0625 0  0.3705904774487813 0.0625 0  0.4024548389919803 0.0625 0  0.4347369038900211 0.0625 0  0.467298435384978 0.0625 0  0.5000000000000517 0.0625 0  0.5327015646151253 0.0625 0  0.5652630961100813 0.0625 0  0.5975451610081212 0.0625 0  0.6294095225513188 0.0625 0  0.6607197326516399 0.0625 0  0.6913417161826045 0.0625 0  0.7211443451095605 0.0625 0  0.7500000000000597 0.0625 0  0.7777851165098603 0.0625 0  0.8043807145044185 0.0625 0  0.829672907550091 0.0625 0  0.8535533905933287 0.0625 0  0.8759199037395413 0.0625 0  0.8966766701456674 0.0625 0  0.9157348061513193 0.0625 0  0.9330127018922625 0.0625 0  0.9484363707663832 0.0625 0  0.961939766255678 0.0625 0  0.9734650647475827 0.0625 0  0.9829629131445586 0.0625 0  0.9903926402016341 0.0625 0  0.9957224306869181 0.0625 0  0.9989294616193084 0.0625 0  1 0.0625 0  0 0.08333333333333333 0  0.001070538380698371 0.08333333333333333 0  0.004277569313095364 0.08333333333333333 0  0.009607359798386061 0.08333333333333333 0  0.01703708685546806 0.08333333333333333 0  0.02653493525245065 0.08333333333333333 0  0.03806023374436157 0.08333333333333333 0  0.05156362923366253 0.08333333333333333 0  0.06698729810778931 0.08333333333333333 0  0.08426519384873815 0.08333333333333333 0  0.1033233298543955 0.08333333333333333 0  0.1240800962605269 0.08333333333333333 0  0.1464466094067445 0.08333333333333333 0  0.1703270924499866 0.08333333333333333 0  0.1956192854956637 0.08333333333333333 0  0.2222148834902257 0.08333333333333333 0  0.2500000000000299 0.08333333333333333 0  0.2788556548905322 0.08333333333333333 0  0.308658283817491 0.08333333333333333 0  0.339280267348458 0.08333333333333333 0  0.3705904774487813 0.08333333333333333 0  0.4024548389919803 0.08333333333333333 0  0.4347369038900211 0.08333333333333333 0  0.467298435384978 0.08333333333333333 0  0.5000000000000517 0.08333333333333333 0  0.5327015646151253 0.08333333333333333 0  0.5652630961100813 0.08333333333333333 0  0.5975451610081212 0.08333333333333333 0  0.6294095225513188 0.08333333333333333 0  0.6607197326516399 0.08333333333333333 0  0.6913417161826045 0.08333333333333333 0  0.7211443451095605 0.08333333333333333 0  0.7500000000000597 0.08333333333333333 0  0.7777851165098603 0.08333333333333333 0  0.8043807145044185 0.08333333333333333 0  0.829672907550091 0.08333333333333333 0  0.8535533905933287 0.08333333333333333 0  0.8759199037395413 0.08333333333333333 0  0.8966766701456674 0.08333333333333333 0  0.9157348061513193 0.08333333333333333 0  0.9330127018922625 0.08333333333333333 0  0.9484363707663832 0.08333333333333333 0  0.961939766255678 0.08333333333333333 0  0.9734650647475827 0.08333333333333333 0  0.9829629131445586 0.08333333333333333 0  0.9903926402016341 0.08333333333333333 0  0.9957224306869181 0.08333333333333333 0  0.9989294616193084 0.08333333333333333 0  1 0.08333333333333333 0  0 0.1041666666666667 0  0.001070538380698371 0.1041666666666667 0  0.004277569313095364 0.1041666666666667 0  0.009607359798386061 0.1041666666666667 0  0.01703708685546806 0.1041666666666667 0  0.02653493525245065 0.1041666666666667 0  0.03806023374436157 0.1041666666666667 0  0.05156362923366253 0.1041666666666667 0  0.06698729810778931 0.1041666666666667 0  0.08426519384873815 0.1041666666666667 0  0.1033233298543955 0.1041666666666667 0  0.1240800962605269 0.1041666666666667 0  0.1464466094067445 0.1041666666666667 0  0.1703270924499866 0.1041666666666667 0  0.1956192854956637 0.1041666666666667 0  0.2222148834902257 0.1041666666666667 0  0.2500000000000299 0.1041666666666667 0  0.2788556548905322 0.1041666666666667 0  0.308658283817491 0.1041666666666667 0  0.339280267348458 0.1041666666666667 0  0.3705904774487813 0.1041666666666667 0  0.4024548389919803 0.1041666666666667 0  0.4347369038900211 0.1041666666666667 0  0.467298435384978 0.1041666666666667 0  0.5000000000000517 0.1041666666666667 0  0.5327015646151253 0.1041666666666667 0  0.5652630961100813 0.1041666666666667 0  0.5975451610081212 0.1041666666666667 0  0.62
[...]
<PointData  Scalars="f_1075743"> 
<DataArray  type="Float64"  Name="f_1075743"  format="ascii">9.9996768632990718e-01  9.9885072094995120e-01  9.9550512539685843e-01  9.8994662346404694e-01  9.8220120158162805e-01  9.7230495809157746e-01  9.6030395349963826e-01  9.4625398499849922e-01  9.3022029139976681e-01  9.1227725236892043e-01  8.9250809845953472e-01  8.7100462036008097e-01  8.4786686040390513e-01  8.2320276268751680e-01  7.9712775103861322e-01  7.6976420259624645e-01  7.4124079146872068e-01  7.1169169097200169e-01  6.8125564115152160e-01  6.5007490643668397e-01  6.1829416255895830e-01  5.8605936000744363e-01  5.5351661290375032e-01  5.2081115826836377e-01  4.8808642284002873e-01  4.5548322443895090e-01  4.2313912352932759e-01  3.9118792903064142e-01  3.5975935131216075e-01  3.2897878542181636e-01  2.9896719965668117e-01  2.6984109917413179e-01  2.4171253184100228e-01  2.1468910399059546e-01  1.8887397696191335e-01  1.6436582070261524e-01  1.4125870760919737e-01  1.1964193734971393e-01  9.9599790886371914e-02  8.1211218629408458e-02  6.4549473139876051e-02  4.9681700811575941e-02  3.6668509497817831e-02  2.5563530295425060e-02  1.6412991896966257e-02  9.2553251805034178e-03  4.1208140836679983e-03  1.0313068189476836e-03  -1.0935546062138825e-15  9.9996768632990740e-01  9.9885078020002815e-01  9.9550529079431660e-01  9.8994687096669187e-01  9.8220148717802724e-01  9.7230525525130607e-01  9.6030425094382499e-01  9.4625427358094472e-01  9.3022056384885632e-01  9.1227750747518765e-01  8.9250834092942721e-01  8.7100485736160493e-01  8.4786709810262650e-01  8.2320300425827342e-01  7.9712799610845386e-01  7.6976444759065421e-01  7.4124103039334022e-01  7.1169191633421691e-01  6.8125584485245061e-01  6.5007508053820184e-01  6.1829429987978934e-01  5.8605945454194297e-01  5.5351666008372380e-01  5.2081115510088882e-01  4.8808636795288773e-01  4.5548311805685898e-01  4.2313896739485368e-01  3.9118772627748721e-01  3.5975910629667335e-01  3.2897850351966834e-01  2.9896688703416213e-01  2.6984076254632394e-01  2.4171217822998012e-01  2.1468874049712236e-01  1.8887361056250682e-01  1.6436545808101480e-01  1.4125835502804340e-01  1.1964160056435470e-01  9.9599475099441545e-02  8.1210928484093475e-02  6.4549212753779089e-02  4.9681473856211605e-02  3.6668319295946668e-02  2.5563379769367886e-02  1.6412882963140082e-02  9.2552571703787088e-03  4.1207815447729312e-03  1.0312983854344005e-03  -9.8640591171322458e-16  9.9996768632990762e-01  9.9885079426942114e-01  9.9550534642171018e-01  9.8994699132642627e-01  9.8220168502132588e-01  9.7230552244493829e-01  9.6030455400200465e-01  9.4625457281562209e-01  9.3022083648438014e-01  9.1227775209980277e-01  8.9250856922509769e-01  8.7100508463207893e-01  8.4786733721181617e-01  8.2320326310326575e-01  7.9712827737491732e-01  7.6976474956799723e-01  7.4124134809260600e-01  7.1169224257418218e-01  6.8125617120975135e-01  6.5007539814030713e-01  6.1829460003959813e-01  5.8605972923907812e-01  5.5351690230621942e-01  5.2081135906680176e-01  4.8808652923359325e-01  4.5548323362138898e-01  4.2313903559190208e-01  3.9118774676929968e-01  3.5975907995903578e-01  3.2897843232254792e-01  2.9896677391830001e-01  2.6984061130986342e-01  2.4171199343659217e-01  2.1468852741192204e-01  1.8887337511495009e-01  1.6436520684463263e-01  1.4125809519584637e-01  1.1964133988600509e-01  9.9599221734036583e-02  8.1210690715025860e-02  6.4548998517357958e-02  4.9681290060801658e-02  3.6668170960363837e-02  2.5563269101348762e-02  1.6412808648050989e-02  9.2552142759925841e-03  4.1207623093132912e-03  1.0312935738735266e-03  -9.8021450408237016e-16  9.9996768632990674e-01  9.9885080068644505e-01  9.9550537200150058e-01  9.8994704797807365e-01  9.8220178169735883e-01  9.7230566137978136e-01  9.6030472648361886e-01  9.4625476095309591e-01  9.3022102343542445e-01  9.1227793067857643e-01  8.9250874229643207e-01  8.7100526037420989e-01  8.4786752413618882e-01  8.2320346703647107e-01  7.9712850039523453e-01  7.6976499015538857e-01  7.4124160183120169e-01  7.1169250301461107e-01  6.8125643070191144e-01  6.5007564855589606e-01  6.1829483335557966e-01  5.8605993798094913e-01  5.5351707986537169e-01  5.2081149991346043e-01  4.8808662904656552e-01  4.5548328935286880e-01  4.2313904548099701e-01  3.9118771031613975e-01  3.5975899787075566e-01  3.2897830644305492e-01  2.9896660715359274e-01  2.6984040755964750e-01  2.4171175753855409e-01  2.1468826509976657e-01  1.8887309298232877e-01  1.6436491229738801e-01  1.4125779636356434e-01  1.1964104545350504e-01  9.9598940647305040e-02  8.1210431720785958e-02  6.4548769517247528e-02  4.9681097309402941e-02  3.6668018213649262e-02  2.5563156922785213e-02  1.6412734149370785e-02  9.2551714925844519e-03  4.1207431218648997e-03  1.0312887647674978e-03  -8.8746304921612161e-16  9.9996768632990674e-01  9.9885080332919762e-01  9.9550538252532494e-01  9.8994707112922697e-01  9.8220182033335302e-01  9.7230571429462442e-01  9.6030478773230654e-01  9.4625482337313360e-01  9.3022108347370813e-01  9.1227798984064901e-01  8.9250880565952184e-01  8.7100533424871818e-01  8.4786761398849197e-01  8.2320357612506645e-01  7.9712862919399174e-01  7.6976513640417643e-01  7.4124176097795347e-01  7.1169266883898663e-01  6.8125659597110111e-01  6.5007580562178435e-01  6.1829497464994787e-01  5.8606005639892145e-01  5.5351716904724491e-01  5.2081155444348426e-01  4.8808664458703976e-01  4.5548326272785089e-01  4.2313897472020784e-01  3.9118759466760616e-01  3.5975883779053575e-01  3.2897810357084972e-01  2.9896636428325546e-01  2.6984012861084655e-01  2.4171144753248069e-01  2.1468793013404586e-01  1.8887274019244674e-01  1.6436454978189724e-01  1.4125743304156058e-01  1.1964069081786737e-01  9.9598604380285033e-02  8.1210123153955441e-02  6.4548496948560713e-02  4.9680867232519667e-02  3.6667834561049613e-02  2.5563020458067569e-02  1.6412642147971952e-02  9.2551178170079147e-03  4.1207187335979816e-03  1.0312826057446171e-03  -1.2218422039116466e-15  9.9996768632990640e-01  9.9885080443278285e-01  9.9550538691734503e-01  9.8994708075802129e-01  9.8220183624505253e-01  9.7230573569148870e-01  9.6030481194117723e-01  9.4625484771911139e-01  9.3022110763779031e-01  9.1227801647180307e-01  8.9250883926924474e-01  8.7100537964825142e-01  8.4786767501468774e-01  8.2320365482790481e-01  7.9712872546245650e-01  7.6976524796486867e-01  7.4124188367555377e-01  7.1169279708871547e-01  6.8125672327580378e-01  6.5007592507076750e-01  6.1829507935065697e-01  5.8606013982395111e-01  5.5351722530024527e-01  5.2081157845719672e-01  4.8808663226763738e-01  4.5548321105661926e-01  4.2313888182070125e-01  3.9118745984432440e-01  3.5975866154534492e-01  3.2897788760363716e-01  2.9896611148227153e-01  2.6983984303624259e-01  2.4171113439131089e-01  2.1468759573864185e-01  1.8887239188587959e-01  1.6436419580642372e-01  1.4125708232144790e-01  1.1964035262843060e-01  9.9598287885595035e-02  8.1209836816982128e-02  6.4548247849704268e-02  4.9680660370183094e-02  3.6667672244773186e-02  2.5562901929551043e-02  1.6412563557714567e-02  9.2550726166797867e-03  4.1206984057293363e-03  1.0312774993743354e-03  -1.0886774676445381e-15  9.9996768632990629e-01  9.9885080505158219e-01  9.9550538938274480e-01  9.8994708620215466e-01  9.8220184544460498e-01  9.7230574872333708e-01  9.6030482824050767e-01  9.4625486685082405e-01  9.3022113019752639e-01  9.1227804438278948e-01  8.9250887539977275e-01  8.7100542706479367e-01  8.4786773618998901e-01  8.2320373100839728e-01  7.9712881629101795e-01  7.6976535138019853e-01  7.4124199605560148e-01  7.1169291356733710e-01  6.8125683814738935e-01  6.5007603220747034e-01  6.1829517258209377e-01  5.8606021325630631e-01  5.5351727357219715e-01  5.2081159694000356e-01  4.8808661721907559e-01  4.5548315973700054e-01  4.2313879257633641e-01  3.9118733216302565e-01  3.5975849608809551e-01  3.2897768621636081e-01  2.9896587719097351e-01  2.6983958002559660e-01  2.4171084796217049e-01  2.1468729223394217e-01  1.8887207856734642e-01  1.6436388066047578e-01  1.4125677377112181e-01  1.1964005913512445e-01  9.9598017440034242e-02  8.1209596345082763e-02  6.4548042593116819e-02  4.9680493339023399e-02  3.6667543867705814e-02  2.5562810021442759e-02  1.6412503657036864e-02  9.2550386116555146e-03  4.1206832361498670e-03  1.0312737026349108e-03  -9.0591458106592338e-16  9.9996768632990818e-01  9.9885080557424499e-01  9.9550539146853578e-01  9.8994709085456734e-01  9.8220185354030487e-01  9.7230576089892373e-01  9.6030484492694124e-01  9.4625488854844020e-01  9.3022115778397685e-01  9.1227807923225213e-01  8.9250891926868492e-01  8.7100548177334358e-01  8.4786780317440802e-01  8.2320381086584216e-01  7.9712890843865736e-01  7.6976545390348861e-01  7.4124210575834326e-01  7.1169302618460795e-01  6.8125694865701258e-01  6.5007613517503604e-01  6.1829526249215094e-01  5.8606028480395145e-01  5.5351732190733471e-01  5.2081161786641406e-01  4.8808660735385273e-01  4.5548311663517455e-01  4.2313871482421916e-01  3.9118721944273777e-01  3.5975834921569960e-01  3.2897750715571672e-01  2.9896566904405292e-01  2.6983934699732182e-01  2.4171059529349781e-01  2.1468702609171395e-01  1.8887180587547120e-01  1.6436360885493281e-01  1.4125651046512178e-01  1.1963981169201413e-01  9.9597792471470645e-02  8.1209399180166661e-02  6.4547876795726850e-02  4.9680360374486053e-02  3.6667443017892119e-02  2.5562738597910372e-02  1.6412457463615884e-02  9.2550125066413816e-03  4.1206716148534071e-03  1.0312707958690663e-03  -1.1120524986964734e-15  9.9996768632990740e-01  9.9885080610888743e-01  9.9550539360381585e-01  9.8994709563980965e-01  9.8220186197728654e-01  9.7230577390450512e-01  9.6030486334162846e-01  9.4625491321786692e-01  9.3022118964941725e-01  9.1227811936733871e-01  8.9250896883352571e-01  8.7100554185919554e-01  8.4786787454156154e-01  8.2320389363366009e-01  7.9712900181861490e-01  7.6976555605195884e-01  7.4124221378161537e-01  7.1169313628280462e-01  6.8125705636285216e-01  6.5007623563734140e-01  6.1829535076219821e-01  5.8606035609921869e-01  5.5351737184152283e-01  5.2081164264376822e-01  4.8808660392952347e-01  4.5548308284348610e-01  4.2313864947617968e-01  3.9118712239375858e-01  3.5975822140414931e-01  3.2897735061275829e-01  2.9896548687401409e-01  2.6983914332512798e-01  2.4171037517253030e-01  2.1468679536184412e-01  1.8887157095922044e-01  1.6436337648113922e-01  1.4125628731719350e-01  1.1963960399192310e-01  9.9597605532013370e-02  8.1209236982519861e-02  6.4547741668795580e-02  4.9680252854141897e-02  3.6667361932763279e-02  2.5562681363312464e-02  1.6412420492227651e-02  9.2549916106528449e-03  4.1206623070885124e-03  1.0312684667791799e-03  -9.8517117352662632e-16  9.9996768632990718e-01  9.9885080666778370e-01  9.9550539583655895e-01  9.8994710065056857e-01  9.8220187084593269e-01  9.7230578766985876e-01  9.6030488299532912e-01  9.4625493971580599e-01  9.3022122392411266e-01  9.1227816232357672e-01  8.9250902131008580e-01  8.7100560453059395e-01  8.4786794774918384e-01  8.2320397717455684e-01  7.9712909475035854e-01  7.6976565657336560e-01  7.4124231922391581e-01  7.1169324321130500e-01  6.8125716076319809e-01  6.5007633314916780e-01  6.1829543692624778e-01  5.8606042659453583e-01  5.5351742269986737e-01  5.2081167043641086e-01  4.8808660592489539e-01  4.5548305713498954e-01  4.2313859507978863e-01  3.9118703931456716e-01  3.5975811067125579e-01  3.2897721428181254e-01  2.9896532799522246e-01  2.6983896587329748e-01  2.4171018393288024e-01  2.1468659576385593e-01  1.8887136885128664e-01  1.6436317784303994e-01  1.4125609791725180e-01  1.1963942901053606e-01  9.9597449192028356e-02  8.1209102242531958e-02  6.4547630040389492e-02  4.9680164386685127e-02  3.6667295368818680e-02  2.5562634415673073e-02  1.6412390159852817e-02  9.2549744569878287e-03  4.1206546622338603e-03  1.0312665532475134e-03  -1.3749249288675270e-15  9.9996768632990651e-01  9.9885080723788966e-01  9.9550539811416039e-01  9.8994710576376743e-01  9.8220187990404406e-01  9.7230580175053860e-01  9.6030490313081607e-01  9.4625496687947941e-01  9.3022125901334773e-01  9.1227820613394184e-01  8.9250907449141292e-01  8.7100566750904662e-01  8.4786802060735145e-01  8.2320405950376752e-01  7.9712918551159462e-01  7.6976575400878855e-01  7.4124242084822822e-01  7.1169334588938149e-01  6.8125726085934724e-01  6.5007642672214194e-01  6.1829551994365384e-01  5.8606049514577707e-01  5.5351747319499722e-01  5.2081169978361219e-01  4.8808661168268153e-01  4.5548303763679732e-01  4.2313854952838015e-01  3.9118696784445073e-01  3.5975801437750471e-01  3.2897709521336199e-01  2.9896518911053882e-01  2.6983881095485618e-01  2.4171001745586515e-01  2.1468642271469882e-01  1.8887119449366424e-01  1.6436300743556201e-01  1.4125593639685874e-01  1.1963928066942900e-01  9.9597317388604875e-02  8.1208989193362904e-02  6.4547536733004840e-02  4.9680090628896556e-02  3.6667239954718191e-02  2.5562595358018924e-02  1.6412364929871415e-02  9.2549601886533443e-03  4.1206483028870255e-03  1.0312649613997693e-03  -5.6476240956433913e-16  9.9996768632990685e-01  9.9885080780335500e-01  9.9550540037336022e-01  9.8994711083600495e-01  9.8220188889071491e-01  9.7230581572221964e-01  9.6030492310949611e-01  9.4625499381577671e-01  9.3022129375735574e-01  9.1227824939838165e-01  8.9250912680243477e-01  8.7100572913729157e-01  8.4786809147543285e-01  8.2320413907912127e-01  7.9712927270734657e-01  7.6976584712129270e-01  7.4124251755388881e-01  7.1169344330870532e-01  6.8125735568064727e-01  6.5007651536741928e-01  6.1829559875620455e-01  5.8606056058220135e-01  5.5351752200888871e-01  5.2081172919282437e-01  4.8808661951455357e-01  4.5548302244706751e-01  4.2313851069030217e-01  3.9118690560514624e-01  3.5975792987908245e-01  3.2897699047666668e-01  2.9896506697928082e-01  2.6983867499746939e-01  2.4170987182263284e-01  2.1468627194898032e-01  1.8887104329982299e-01  1.6436286041284817e-01  1.4125579775810093e-01  1.1963915397340526e-01  9.9597205321820620e-02  8.1208893435993967e-02  6.4547457930588720e-02  4.9680028468424869e-02  3.6667193318800202e-02  2.5562562515879021e-02  1.6412343725617812e-02  9.2549482002040207e-03  4.1206429603059432e-03  1.0312636241276922e-03  -1.2366793690738425e-15  9.9996768632990674e-01  9.9885080835154483e-01  9.9550540256349751e-01  9.8994711575316974e-01  9.8220189760231691e-01  9.7230582926437692e-01  9.6030494246750275e-01  9.4625501989742022e-01  9.3022132735886487e-01  9.1227829116230985e-01  8.9250917716624711e-01  8.7100578826987984e-01  8.4786815920142977e-01  8.2320421479764361e-01  7.9712935532027507e-01  7.6976593499052703e-01  7.4124260850457913e-01  7.1169353468558350e-01  6.8125744445431935e-01  6.5007659827828279e-01  6.1829567248074679e-01  5.8606062190685593e-01  5.5351756799979124e-01  5.2081175735251806e-01  4.8808662791899543e-01  4.5548300985754486e-01  4.2313847663570758e-01  3.9118685043096829e-01  3.5975785476021210e-01  3.2897689739181873e-01  2.9896495864512207e-01  2.6983855476114332e-01  2.4170974351237440e-01  2.1468613968474351e-01  1.8887091127041478e-01  1.6436273263246259e-01  1.4125567782266585e-01  1.1963904484376650e-01  9.9597109162725822e-02  8.1208811533908631e-02  6.4547390699540214e-02  4.9679975534277949e-02  3.6667153656619628e-02  2.5562534608746190e-02  1.6412325716947822e-02  9.2549380212696326e-03  4.1206384246418488e-03  1.0312624888440837e-03  -9.5097398920819666e-16  9.9996768632990718e-01  9.9885080887366284e-01  9.9550540464954329e-01  9.8994712043658128e-01  9.8220190589924061e-01  9.7230584215984639e-01  9.6030496089508577e-01  9.4625504471128630e-01  9.3022135929788086e-01  9.1227833080623488e-01  8.9250922488430595e-01  8.7100584416179427e-01  8.4786822303287490e-01  8.2320428593598061e-01  7.9712943268115355e-01  7.6976601700956371e-01  7.4124269314590674e-01  7.1169361949402810e-01  6.8125752664939654e-01  6.5007667488179399e-01  6.1829574046599867e-01  5.8606067835730646e-01  5.5351761026589785e-01  5.2081178319809041e-01  4.8808663564937771e-01  4.5548299842355150e-01  4.2313844570811388e-01  3.9118680044150433e-01  3.5975778690593119e-01  3.2897681360090419e-01  2.9896486150286750e-01  2.6983844739624679e-01  2.4170962944525040e-01  2.1468602264261655e-01  1.8887079497831194e-01  1.6436262059484497e-01  1.4125557311591511e-01  1.1963894994302662e-01  9.9597025824830362e-02  8.1208740750788558e-02  6.4547332723239842e-02  4.9679929961137841e-02  3.6667119548648847e-02  2.5562510627266690e-02  1.6412310248086561e-02  9.2549292796955639e-03  4.1206345297553288e-03  1.0312615139691833e-03  -1.2787202008047320e-15  9.9996768632990751e-01  9.9885080936435866e-01  9.9550540661003262e-01  9.8994712483804237e-01  9.8220191369623988e-01  9.7230585427662974e-01  9.6030497820522387e-01  9.4625506800976078e-01  9.3022138926497688e-01  9.1227836796402884e-01  8.9250926954662790e-01  8.7100589637940617e-01  8.4786828253686874e-01  8.2320435208477427e-01  7.9712950441980845e-01  7.6976609285118169e-01  7.4124277118460069e-01  7.1169369745443900e-01  6.8125760197201690e-01  6.5007674483826505e-01  6.1829580229483128e-01  5.8606072940946785e-01  5.5351764815029969e-01  5.2081180591771770e-01  4.8808664172049659e-01  4.5548298697116668e-01  4.2313841653223877e-01  3.9118675404984160e-01  3.5975772451013516e-01  3.2897673707467739e-01  2.9896477330168036e-01  2.6983835044010757e-01  2.4170952696809042e-01  2.1468591801520173e-01  1.8887069151543559e-01  1.6436252136218255e-01  1.4125548075509942e-01  1.1963886653446583e-01  9.9596952803958097e-02  8.1208678885481458e-02  6.4547282149310173e-02  4.9679890263097229e-02  3.6667089866520654e-02  2.5562489770279122e-02  1.6412296799155016e-02  9.2549216808057114e-03  4.1206311441764195e-03  1.0312606665914582e-03  -9.9158882592000609e-16  9.9996768632990762e-01  9.9885080982093599e-01  9.9550540843420576e-01  9.8994712893342485e-01  9.8220192095068248e-01  9.7230586554892418e-01  9.6030499430528471e-01  9.4625508967124983e-01  9.3022141711013284e-01  9.1227840246141090e-01  8.9250931096323227e-01  8.7100594472962556e-01  8.4786833753185076e-01  8.2320441308747749e-01  7.9712957041274857e-01  7.6976616242481188e-01  7.4124284255337736e-01  7.1169376850455401e-01  6.8125767034053297e-01  6.5007680801896484e-01  6.1829585776313589e-01  5.8606077475715457e-01  5.5351768122058720e-01  5.2081182493190659e-01  4.8808664538818564e-01  4.5548297457705300e-01  4.2313838799399800e-01  3.9118670994267063e-01  3.5975766605531423e-01  3.2897666609109483e-01  2.9896469212092336e-01  2.6983826178791981e-01  2.4170943381729593e-01  2.1468582341838649e-01  1.8887059842919326e-01  1.6436243247764540e-01  1.4125539835149728e-01  1.1963879237093433e-01  9.9596888060750788e-02  8.1208624157614998e-02  6.4547237487552797e-02  4.9679855249535991e-02  3.6667063708935660e-02  2.5562471399386673e-02  1.6412284956630340e-02  9.2549149903926129e-03  4.1206281634908323e-03  1.0312599205389854e-03  -8.0866388304504303e-16  9.9996768632990729e-01  9.9885081024273947e-01  9.9550541011946025e-01  9.8994713271688706e-01  9.8220192765231040e-01  9.7230587596111817e-01  9.6030500917385331e-01  9.4625510966903692e-01  9.3022144280320285e-01  9.1227843426854172e-01  8.9250934911049673e-01  8.7100598920284966e-01  8.4786838803062137e-01  8.2320446898604638e-01  7.9712963073374210e-01  7.6976622583248122e-01  7.4124290737184817e-01  7.1169383276431375e-01  6.8125773185292160e-01  6.5007686447486612e-01  6.1829590684916858e-01  5.8606081428121837e-01  5.5351770923772925e-01  5.2081183986200452e-01  4.8808664611744990e-01  4.5548296053634851e-01  4.2313835920835241e-01  3.9118666704796834e-01  3.5975761027983832e-01  3.2897659920140487e-01  2.9896461633387561e-01  2.6983817965242241e-01  2.4170934807236064e-01  2.1468573683664699e-01  1.8887051365769381e-01  1.6436235189004064e-01  1.4125532392560880e-01  1.1963872560394968e-01  9.9596829928899108e-02  8.1208575120933463e-02  6.4547197533048287e-02  4.9679823961382499e-02  3.6667040351887233e-02  2.5562455002821519e-02  1.641227438940940