<?xml version="1.0"?>
<VTKFile type="UnstructuredGrid"  version="0.1"  >
<UnstructuredGrid>
<Piece  NumberOfPoints="4073" NumberOfCells="7430">
<Points>
<DataArray  type="Float64"  NumberOfComponents="3"  format="ascii">-20 2.5 0  -20 0 0  -1 0 0  -0.9996988186962042 0.02454122852291233 0  -0.9987954562051724 0.04906767432741797 0  -0.9972904566786902 0.07356456359966773 0  -0.9951847266721968 0.09801714032956083 0  -0.99247953459871 0.1224106751992163 0  -0.989176509964781 0.1467304744553618 0  -0.9852776423889412 0.1709618887603012 0  -0.9807852804032304 0.1950903220161286 0  -0.9757021300385285 0.21910124015687 0  -0.970031253194544 0.2429801799032641 0  -0.9637760657954398 0.2667127574748985 0  -0.9569403357322088 0.2902846772544624 0  -0.9495281805930367 0.3136817403988914 0  -0.9415440651830207 0.3368898533922203 0  -0.9329927988347388 0.3598950365349883 0  -0.9238795325112867 0.3826834323650899 0  -0.9142097557035307 0.4052413140049899 0  -0.9039892931234433 0.427555093430282 0  -0.8932243011955152 0.4496113296546069 0  -0.8819212643483549 0.4713967368259979 0  -0.8700869911087113 0.4928981922297841 0  -0.857728610000272 0.5141027441932218 0  -0.8448535652497071 0.5349976198870972 0  -0.8314696123025453 0.5555702330196022 0  -0.8175848131515836 0.5758081914178454 0  -0.8032075314806448 0.5956993044924335 0  -0.7883464276266062 0.6152315905806269 0  -0.773010453362737 0.6343932841636455 0  -0.7572088465064846 0.6531728429537766 0  -0.7409511253549589 0.6715589548470186 0  -0.7242470829514668 0.6895405447370671 0  -0.7071067811865475 0.7071067811865476 0  -0.6895405447370669 0.7242470829514669 0  -0.6715589548470184 0.740951125354959 0  -0.6531728429537765 0.7572088465064847 0  -0.6343932841636454 0.7730104533627371 0  -0.6152315905806267 0.7883464276266063 0  -0.5956993044924334 0.8032075314806449 0  -0.5758081914178453 0.8175848131515837 0  -0.555570233019602 0.8314696123025455 0  -0.534997619887097 0.8448535652497072 0  -0.5141027441932217 0.8577286100002721 0  -0.492898192229784 0.8700869911087115 0  -0.4713967368259977 0.881921264348355 0  -0.4496113296546067 0.8932243011955152 0  -0.4275550934302819 0.9039892931234434 0  -0.4052413140049897 0.9142097557035307 0  -0.3826834323650897 0.9238795325112867 0  -0.3598950365349882 0.9329927988347388 0  -0.3368898533922199 0.9415440651830208 0  -0.3136817403988914 0.9495281805930367 0  -0.2902846772544622 0.9569403357322089 0  -0.2667127574748983 0.9637760657954398 0  -0.2429801799032639 0.970031253194544 0  -0.2191012401568697 0.9757021300385286 0  -0.1950903220161282 0.9807852804032304 0  -0.1709618887603012 0.9852776423889412 0  -0.1467304744553616 0.989176509964781 0  -0.1224106751992162 0.99247953459871 0  -0.09801714032956065 0.9951847266721969 0  -0.07356456359966733 0.9972904566786902 0  -0.04906767432741801 0.9987954562051724 0  -0.02454122852291214 0.9996988186962042 0  6.123233995736766e-17 1 0  0.02454122852291226 0.9996988186962042 0  0.04906767432741813 0.9987954562051724 0  0.07356456359966745 0.9972904566786902 0  0.09801714032956077 0.9951847266721968 0  0.1224106751992163 0.99247953459871 0  0.1467304744553617 0.989176509964781 0  0.1709618887603014 0.9852776423889412 0  0.1950903220161283 0.9807852804032304 0  0.2191012401568698 0.9757021300385286 0  0.242980179903264 0.970031253194544 0  0.2667127574748984 0.9637760657954398 0  0.2902846772544623 0.9569403357322089 0  0.3136817403988916 0.9495281805930367 0  0.3368898533922201 0.9415440651830208 0  0.3598950365349883 0.9329927988347388 0  0.3826834323650898 0.9238795325112867 0  0.4052413140049899 0.9142097557035307 0  0.4275550934302822 0.9039892931234433 0  0.4496113296546066 0.8932243011955153 0  0.4713967368259978 0.8819212643483549 0  0.4928981922297841 0.8700869911087113 0  0.5141027441932217 0.8577286100002721 0  0.5349976198870973 0.844853565249707 0  0.5555702330196023 0.8314696123025452 0  0.5758081914178453 0.8175848131515837 0  0.5956993044924335 0.8032075314806448 0  0.6152315905806268 0.7883464276266062 0  0.6343932841636455 0.773010453362737 0  0.6531728429537768 0.7572088465064845 0  0.6715589548470183 0.7409511253549591 0  0.6895405447370669 0.7242470829514669 0  0.7071067811865476 0.7071067811865475 0  0.724247082951467 0.6895405447370668 0  0.7409511253549591 0.6715589548470183 0  0.7572088465064846 0.6531728429537768 0  0.773010453362737 0.6343932841636455 0  0.7883464276266063 0.6152315905806268 0  0.8032075314806449 0.5956993044924334 0  0.8175848131515837 0.5758081914178453 0  0.8314696123025452 0.5555702330196022 0  0.8448535652497071 0.5349976198870972 0  0.8577286100002721 0.5141027441932217 0  0.8700869911087115 0.492898192229784 0  0.881921264348355 0.4713967368259976 0  0.8932243011955153 0.4496113296546065 0  0.9039892931234433 0.4275550934302821 0  0.9142097557035307 0.4052413140049899 0  0.9238795325112867 0.3826834323650898 0  0.932992798834739 0.3598950365349881 0  0.9415440651830208 0.3368898533922201 0  0.9495281805930367 0.3136817403988915 0  0.9569403357322088 0.2902846772544623 0  0.9637760657954398 0.2667127574748984 0  0.970031253194544 0.2429801799032639 0  0.9757021300385286 0.2191012401568698 0  0.9807852804032304 0.1950903220161282 0  0.9852776423889412 0.1709618887603012 0  0.989176509964781 0.1467304744553617 0  0.99247953459871 0.1224106751992162 0  0.9951847266721969 0.0980171403295606 0  0.9972904566786902 0.07356456359966743 0  0.9987954562051724 0.04906767432741801 0  0.9996988186962042 0.02454122852291229 0  1 0 0  20 0 0  20 2.5 0  0 2.5 0  -10 2.5 0  10 2.5 0  -10.5 0 0  -5 2.5 0  10.5 0 0  5 2.5 0  -5.75 0 0  5.75 0 0  -15.25 0 0  -15 2.5 0  15.25 0 0  15 2.5 0  -17.625 0 0  -17.5 2.5 0  17.5 2.5 0  17.625 0 0  12.5 2.5 0  12.875 0 0  -12.5 2.5 0  -12.875 0 0  -2.5 2.5 0  2.5 2.5 0  -8.125 0 0  -7.5 2.5 0  8.125 0 0  7.5 2.5 0  -3.375 0 0  3.375 0 0  -18.75 2.5 0  20 1.25 0  16.4375 1.19375 0  -16.25 2.5 0  13.75 2.5 0  -14.0625 0 0  -11.6875 0 0  11.6875 0 0  8.75 2.5 0  -8.75 2.5 0  6.9375 0 0  6.25 2.5 0  -6.25 2.5 0  -9.3125 0 0  -6.9375 0 0  9.3125 0 0  11.25 2.5 0  -11.25 2.5 0  3.75 2.5 0  4.5625 0 0  -4.5625 0 0  -3.75 2.5 0  -13.75 2.5 0  14.0625 0 0  -16.4375 0 0  -20 1.25 0  -18.8125 0 0  18.75 2.5 0  -18.21875 1.2359375 0  18.125 1.278125 0  -15.84375 1.2125 0  -14.375 1.30859375 0  14.65625 1.203125 0  2.1875 0 0  -2.1875 0 0  13.125 1.315625 0  3.125 1.315625 0  -3.125 1.315625 0  -12.28125 1.1890625 0  -5.15625 1.184375 0  11.09375 1.184375 0  5.625 1.325 0  -10.97262068800044 1.220713793599868 0  9.375 1.32734375 0  -6.875 1.32734375 0  -9.67626828410207 1.24449497187193 0  8.061334925608099 1.312208731402025 0  -8.188665074391901 1.312208731402025 0  -1.25 2.5 0  1.25 2.5 0  4.37465139623265 1.41327350462657 0  16.25 2.5 0  6.84375467392576 1.430449641528851 0  1.846573640185365 1.334702047669377 0  -1.846573640185365 1.334702047669377 0  -17.02955351149946 1.396129584721571 0  16.4375 0 0  18.8125 0 0  -13.31314667860176 1.511193493282891 0  -4.122005747945582 0.961844908681634 0  12.12799425205442 0.961844908681634 0  15.54930641305724 1.660405980876393 0  19.0578783583929 0.9559530595267438 0  8.71875 0.6864560603786576 0  -7.53125 0.6864560603786576 0  0.6257799091428734 1.819008129832855 0  -0.6257799091428727 1.819008129832856 0  6.291331569065717 0.7194652423646902 0  -19.11204717950418 0.9044926794710327 0  -4.488713231834613 1.772186102355655 0  11.76128676816539 1.772186102355655 0  -19.28185607205105 1.781856072051052 0  19.30868080343342 1.808680803433421 0  9.90625 0.6371857066656857 0  -6.34375 0.6371857066656857 0  3.796921710049233 0.7617406159238448 0  7.392020585015773 0.7480839107774819 0  -8.910372062800235 0.7929553447587234 0  10.2506781820361 1.451853913138859 0  -5.999321817963904 1.451853913138859 0  4.957643119381741 0.7716423099297361 0  17.29984375 0.8640625 0  15.41193625859067 0.8279888354083842 0  -13.72251704931534 0.7728002662082776 0  16.875 2.5 0  17.12178336313261 1.690954734835967 0  -11.64001625260176 1.74572103154608 0  2.477726735235857 0.7850262278604345 0  13.46875 0 0  13.765625 0.7802887470308788 0  -2.78125 0 0  -2.477726735235857 0.7850262278604346 0  -10.33383379274331 1.744431431923121 0  13.91957519050334 1.653419259628842 0  -15.08147780274903 0.8341506893754731 0  -15.14066649024666 1.671962869821843 0  -8.950686484882164 1.678622661163363 0  -17.55392917606836 0.794731598412167 0  -16.80247533599675 0.6688259240674158 0  -12.94289066923278 0.7766744225472476 0  -9.90625 0 0  -10.31601468672093 0.7730817089126454 0  -18.21875 0 0  -12.28125 0 0  -17.68515668569534 1.768907656575843 0  18.21875 0 0  10.85059123027421 1.880344717307101 0  -5.399408769725794 1.880344717307101 0  -3.738137326223278 1.749164834446819 0  -3.125 2.5 0  12.46235897590077 1.601301060091387 0  -11.09375 0 0  -11.61661448001209 0.7781698802173554 0  -15.625 2.5 0  1.59375 0 0  -1.764022608759088 0.6027229563180789 0  -8.125 2.5 0  8.125 2.5 0  8.713468311289519 1.727645658498745 0  9.375 2.5 0  -7.536531688710481 1.727645658498745 0  -6.875 2.5 0  14.375 2.5 0  17.78381794101733 1.874391370085592 0  18.59891476281433 1.80649740393129 0  -18.58835555265984 1.824268641341969 0  1.806126122135773 0.6510673837470153 0  -16.875 2.5 0  -16.36681393636619 1.755298393865037 0  -16.13072438662071 0.6014017614895231 0  -13.92460230791385 1.83195710210235 0  -14.40198779087891 0.6105385965811564 0  20 0.625 0  19.40625 0 0  14.6875 1.888836596385542 0  14.65625 0 0  12.78248197181444 0.6991460920542635 0  -3.467518028185561 0.6991460920542635 0  13.125 2.5 0  2.491957142932539 1.738660596534321 0  3.125 2.5 0  1.875 2.5 0  3.718973573227002 1.75927763286174 0  -2.491957142932539 1.738660596534321 0  -1.875 2.5 0  -9.375 2.5 0  6.2001972846108 1.772767401802766 0  5.625 2.5 0  5.027483518098582 1.760895488350309 0  5.625981449127788 0.6566963631252629 0  -12.30101114679273 1.859484693920165 0  9.742489932362783 1.884363450023167 0  -6.507510067637216 1.884363450023166 0  1.13492303295015 1.283502262067074
[...]
<PointData  Scalars="f_2231557"> 
<DataArray  type="Float64"  Name="f_2231557"  format="ascii">1.8019155561284621e-04  -5.4864295298758901e-06  -1.0909714355345431e-04  -1.5532857586773424e-04  -4.7124635582418910e-04  -1.0369396899213069e-03  -1.7406601333987261e-03  -2.7162151733912190e-03  -3.9889934469879802e-03  -7.0097830530660181e-03  -6.1582689890592665e-03  -6.7760110538331976e-03  -1.0428950038411702e-02  -1.2569135933037446e-02  -1.4812441413907059e-02  -1.7209631991037387e-02  -1.9775633120937833e-02  -2.2576742309455451e-02  -2.5411850616525965e-02  -2.8425667025925569e-02  -3.1495804245881463e-02  -3.4812020769137739e-02  -3.8134423942565603e-02  -4.1451032553959814e-02  -4.4885277553059495e-02  -4.8401418175884912e-02  -5.1939438972052096e-02  -5.5272222534247926e-02  -5.8864922562393854e-02  -6.2201583494878629e-02  -6.5446404649888504e-02  -6.8886182639817814e-02  -7.1947253593234381e-02  -7.4830383370968687e-02  -7.7801252096945897e-02  -8.0456836009167226e-02  -8.2931472710085108e-02  -8.5049390697244334e-02  -8.6946411808828658e-02  -8.8793801836908839e-02  -9.0238107666034781e-02  -9.1177210125638827e-02  -9.1922796565236886e-02  -9.2622913151248390e-02  -9.4695141444748693e-02  -8.6494566136962617e-02  -8.5216974977002827e-02  -1.0089229380491969e-01  -8.9240557687057936e-02  -8.5023183183079790e-02  -8.1846635864654405e-02  -7.8440814870966935e-02  -7.4658137031444777e-02  -7.0581552090648564e-02  -6.5989957066715552e-02  -6.1145649648071392e-02  -5.5654841341147669e-02  -5.0103565474852507e-02  -4.4072458306948351e-02  -3.7953840584073757e-02  -3.1444192522655935e-02  -2.4781142233720497e-02  -1.7808785510862651e-02  -1.0928148323339666e-02  -3.7764512142908317e-03  3.2003007082901562e-03  1.0413570588235523e-02  1.7425413862761363e-02  2.4401059284602612e-02  3.1177897339602891e-02  3.7802159284589028e-02  4.4166658059269365e-02  5.0486283817991133e-02  5.6419860207104211e-02  6.2110993504801704e-02  6.7744540806980572e-02  7.3270849907420790e-02  8.4646857166093992e-02  7.1101006126093561e-02  7.8286282073496472e-02  9.0251111674986673e-02  9.1012975209360691e-02  9.2752012483855104e-02  9.4459376875212761e-02  9.5583190538089224e-02  9.6728837841493456e-02  9.7324798545187954e-02  9.7195173876726673e-02  9.6998713675945994e-02  9.6266522134352231e-02  9.5604593570317142e-02  9.4211266831214599e-02  9.2430083243746117e-02  9.0610035251463619e-02  8.8504430063992723e-02  8.6168486111417142e-02  8.3469397108420260e-02  8.0798352532359341e-02  7.7903592652318152e-02  7.4637115149389699e-02  7.1402130313110615e-02  6.8101193437659385e-02  6.4727040860503279e-02  6.1122497956978168e-02  5.7702861542161796e-02  5.4256381403019305e-02  5.0706586268743109e-02  4.7132689525379759e-02  4.3712287077197973e-02  4.0300707082361532e-02  3.6994563642590308e-02  3.3816727069411273e-02  3.0723636583627742e-02  2.8297291084436235e-02  2.3672845689478843e-02  1.9778279006624822e-02  2.1703622965616499e-02  1.6922740563875993e-02  1.4424401007357424e-02  1.2060657141124436e-02  1.0008260353831053e-02  8.1212330839480762e-03  6.4514451026261143e-03  4.9515840107889845e-03  3.6616211863867245e-03  2.5530268775535584e-03  1.6814756164106796e-03  9.8890769518065287e-04  4.3434573109811276e-04  1.3029327254434497e-04  3.6602283498392452e-05  -4.4242380244076756e-09  4.5064015039474331e-10  1.9645211158007096e-03  -3.7452088224130015e-09  3.9575146134699006e-09  4.8012153994719963e-08  1.8546878876560116e-07  -6.0076380919854478e-08  1.6359324097009100e-06  -5.2499919403200111e-05  5.4688901405877934e-05  2.9198800140808446e-09  4.4051824605450358e-10  1.9073257506412566e-09  -1.2118061658596304e-09  4.6963734877604883e-09  -2.0998970064685077e-10  4.6512722658223223e-10  -1.2427479490985023e-08  -1.4334569047064389e-09  5.1978145971308629e-09  2.0511674428306189e-09  -1.1936294316060552e-08  1.2972092165369919e-04  -5.3561208576309271e-05  3.8595232010290723e-07  -1.4674390209663952e-07  -3.6570409097609526e-07  1.7336607414937201e-07  -3.6325933264839071e-03  3.7247170595581121e-03  5.7488362945594907e-08  -5.3007529490058220e-09  -3.6347736548271934e-09  -1.8103771836089003e-09  -1.3299138164499710e-09  -8.9595123294281370e-09  4.9837832697956659e-09  -2.1932368519939282e-08  3.9047805603606591e-08  9.3085296305310854e-10  3.1285231759069670e-06  1.1908377469649785e-06  -5.5228085971380844e-07  1.9816472299630453e-07  -2.9264247585511257e-06  -1.6228622238816573e-07  4.0786757569663891e-09  1.1621350148548218e-09  1.8775499286977304e-05  5.2587844393571232e-04  -5.0943006542936706e-04  -5.5574699938081802e-07  6.4550127878769184e-09  -3.2470014087484066e-09  1.4071153567624186e-09  1.7064749935273487e-04  -1.7217110802917496e-08  5.3867715216006416e-10  -3.5575230511148356e-09  1.7293509495897274e-09  3.2184378894598641e-09  -7.4292740347034299e-09  -3.8447031589540872e-10  1.7807595382678287e-02  -1.7550379140298236e-02  -3.3492000259968238e-09  -2.1309072306167709e-03  2.0614030871116337e-03  1.3909878840320991e-08  5.5383378904209428e-05  9.1632952281096326e-09  -3.5515112049777051e-05  2.8848592300375577e-09  4.8440282252285117e-08  2.5041916015135502e-06  -3.6479150745835089e-08  -3.8369479156769045e-08  4.4685338836423509e-09  5.3353265463287924e-04  2.2981192739556172e-04  -3.8205191875502687e-04  -1.7464431113425694e-09  -2.8733325938009214e-06  -9.8757630011516214e-03  9.5183680816095274e-03  1.8310353600762974e-09  9.2520097554291699e-09  1.6631658787746206e-08  4.9740083594362040e-09  -4.0723883148149869e-05  -3.6246779915712391e-10  -3.9140036470100968e-09  -4.1330575002617911e-10  -2.1125872344875737e-07  4.2466945780229716e-07  -2.1936821988579516e-02  2.0938892735935050e-02  4.1158316435163193e-06  2.2272504227802028e-08  3.6637428349210348e-04  8.5013707989451994e-09  -3.0758607082073999e-07  -1.5483361190617261e-09  -6.5371178024740781e-08  -5.1861840056662370e-06  6.6454785416767467e-04  -5.0545106906206552e-07  1.3789830147774740e-07  3.0844308018326716e-08  1.8458510086880810e-05  7.4718482362281369e-05  4.7533664366298428e-09  3.3001100642843637e-09  2.9292608183891706e-09  1.9315687402787205e-09  -3.1807551234875633e-09  -3.2716692968013165e-09  4.3188475630573696e-03  1.3560110066956038e-09  -5.2114108765625799e-09  -8.4854924986809237e-03  -4.2495322677830313e-03  -5.3031437934604829e-08  -8.9325559169383349e-09  -4.5243151497886860e-09  -3.8782724656808819e-09  -2.0355291921324011e-07  -4.0557367226266775e-09  -5.3747145338649523e-09  -1.8695733829528054e-08  9.8975769304952410e-08  3.3179005457481245e-08  -1.1989804554929184e-08  -2.7147924843356806e-09  3.8517831946758726e-09  5.2529225805263669e-09  1.7219897547413010e-08  5.6218864921717665e-05  1.3390660663987648e-03  -3.4485484038966839e-05  -1.6917854278580370e-09  1.4758923243576256e-08  5.0955023888868657e-09  3.7436490653798519e-09  2.8042722785103887e-02  -1.5657668612000877e-02  -1.8961231648113931e-08  4.3580314236699960e-08  2.7100070536315441e-07  1.3107832822146239e-08  -3.0585609842414910e-07  -2.4665581773360389e-07  -3.4594386045141522e-09  -4.1624462464937140e-09  -5.5201164537994571e-09  -2.4319394765812570e-08  1.3810016628290078e-02  -1.6320332869723421e-10  -1.0096795710613330e-08  4.5019726289486471e-09  5.8125604746749352e-09  4.6062696961572654e-09  -1.3456293711803697e-09  3.4040811595795560e-09  -4.1482636240379247e-09  5.8448569567806115e-09  1.4346245950232928e-09  -1.3907782946583466e-03  -3.7449822795148956e-10  -8.4256277782796211e-03  -4.7595995559556144e-06  -5.2159530713473283e-05  -1.4372316413919365e-03  8.0808533928207853e-03  1.1971511201193512e-04  -5.3265183469257764e-09  -1.0745550892045807e-05  7.9160634506152351e-07  -1.3883882956403128e-04  2.9572183138295003e-05  -2.6788601424197206e-09  1.0376265781845211e-07  3.2479834911991802e-06  -1.0507523409887877e-02  1.1284862199810062e-02  -8.3375086572256126e-09  -1.7526651743559918e-04  -2.5985133657175369e-08  -2.3739590744136264e-05  -1.3670680928775618e-08  2.8884451910963726e-03  3.4809121714212320e-09  1.1140768347359196e-08  3.5893626924272113e-07  -3.8008963700941966e-07  3.4340958725159606e-07  1.9673349727031358e-02  -2.0448585129711944e-02  -2.9352930793831780e-08  -2.5178726399752000e-08  -1.4161046971045083e-03  -1.0852995307855676e-07  1.0848560651147426e-07  -6.8571671800766859e-09  1.2608392433448445e-09  2.4053937663034520e-09  4.3227621052889973e-09  -2.7960382970646682e-08  7.9067185904947693e-05  4.1129849855989703e-09  3.0799044981462444e-07  2.0090789487744238e-06  -4.9314736286199554e-04  3.7557620357459808e-09  -4.7445439049680954e-09  4.0582397093837934e-09  -3.5271778937640860e-06  -3.5107182188070583e-09  2.0268121009692510e-06  1.1709547810693868e-03  1.8996983850624477e-09  1.5981045515197890e-03  5.0256179756693860e-04  -3.4969980454114248e-09  -3.0802475217115369e-09  5.6401768709062667e-09  2.9074331094168651e-09  -5.4582040197879896e-09  1.6661547953273079e-08  5.7892052498404623e-10  -1.7039838793265900e-04  -3.8659704183310637e-08  -1.5859131914699313e-09  -5.8374380285213582e-09  -4.4946035134217712e-07  5.4262235592039171e-07  -1.0552445837141039e-08  -8.4180882462378351e-07  -1.3015549121207394e-07  -2.7855203542275490e-02  -4.3152452309097291e-09  -8.7114801911333353e-10  1.7641576038175040e-04  3.0375572953902623e-07  1.3984560440995920e-07  1.4527026773872584e-03  -1.4185125009928562e-05  -8.2266626069349034e-08  1.4911358549404056e-05  -9.2003634016509735e-08  -3.1570063039511933e-07  -4.4605549185654052e-09  -1.4736949173533429e-09  8.6819638216843291e-03  8.6882148038133903e-10  -3.3411469635295904e-03  3.9771881356691391e-09  3.1409772097399603e-03  -3.6896982512994934e-05  9.9069855511194055e-09  6.8184586628520134e-10  4.1844832388534788e-04  4.8419727587804387e-09  2.3585148879130204e-09  1.5609300558248596e-06  -4.0668362528891268e-10  -3.1682967620531025e-04  3.5219014688677243e-09  5.9884528410037981e-10  -5.0078187988911489e-09  -7.4491278416408996e-11  1.1822293909713139e-05  5.1611700775203623e-08  1.5123035030162883e-08  2.3144491160974883e-07  5.9493883430206991e-08  1.3873449972476502e-04  5.7176958827108401e-09  6.4987620929663349e-04  -7.7839420569988562e-06  1.4533902959201690e-08  3.9998135032992048e-07  -3.2226792989178067e-08  2.5585443877395890e-07  1.6132735396299754e-07  1.1787702575033840e-08  3.1440588412809374e-09  -5.1848259707190893e-07  5.1362099123792852e-09  -6.5753851640967223e-04  -1.4299313590648586e-08  -7.7311506780667783e-09  -4.2903508578672445e-09  -6.1803568737363367e-04  -4.5499776226909797e-03  -7.6335373485828778e-05  -1.4710984748322088e-08  -1.1448274000517588e-09  -5.0562745121349354e-09  5.4050128726714549e-04  -1.3027871254844870e-08  9.2388260456135810e-03  -1.2361324736724966e-02  -8.8729068083256402e-09  -6.9170178181747106e-07  -1.0584098720046169e-08  -1.0765803785340774e-08  3.7816471226347903e-09  -4.1848105071395653e-09  1.2461570735389398e-09  -5.4043460343664132e-09  4.3958118205849647e-10  1.8060275920262905e-02  -7.2805987684908701e-09  -3.3813601758253186e-03  4.6184688697150861e-03  -1.8284704794990458e-08  1.3127932113587204e-06  1.1907304492599220e-07  -2.0501769491552128e-09  -1.0606459847439667e-08  -1.5235736672327794e-02  2.4253260274317210e-02  -2.3156464288358276e-02  -7.3663321549700678e-03  -6.3073684635140780e-09  5.3808149208708381e-09  7.4054533744878073e-03  -5.9221212691776603e-09  -5.4087189575094733e-04  -3.8806136363343925e-09  -8.0075520700359712e-03  9.5038921162845288e-03  -1.5938100391261376e-07  -8.2230246021300743e-09  1.5641157514250879e-09  1.0468452705260010e-09  -1.8417232733603933e-08  -1.0577908184719403e-04  9.7826764078852600e-07  -6.9406352758187753e-08  1.2674014878135325e-04  8.2308081986380135e-09  6.5975785862778179e-10  -3.4923269635335080e-07  3.3967171436398239e-07  1.1782109315545533e-06  7.5333379121999203e-08  -1.0571056446325364e-09  4.1987197283576457e-09  2.3638925766079335e-05  -5.1654529250626857e-06  1.3978563334192547e-08  -2.6070821388699928e-07  -2.0623357413905557e-09  3.6680017991108905e-03  1.8935726368097060e-08  1.7287409044131438e-04  -2.8829132598027592e-09  4.7601989676653917e-04  1.4435111086574385e-07  2.2526924669293306e-07  4.3390386696072801e-08  -6.0217133304986353e-09  -9.0895001077014071e-10  -2.8083837645415617e-08  1.7680139592899662e-09  1.3812440217832700e-08  -1.9704592725812351e-08  4.1518230844982003e-06  6.3460626539374538e-06  2.1355097082575199e-05  3.6973913484529130e-08  5.3771621209623222e-04  1.6682381060945866e-05  -1.5974403459433602e-09  3.1166751890046572e-07  3.7888067661156094e-07  1.0248578515923422e-07  -2.5326956630993044e-03  -2.9202141157969668e-05  7.8976169058314332e-07  -1.3298723147097307e-06  6.9796279825575847e-08  -4.9578204494169511e-08  -5.9278502948775280e-08  -2.4975636834199907e-05  -3.0583258882556163e-04  2.0177157323092699e-03  1.7839548541969090e-05  -1.9301894306037059e-05  2.9298971604055791e-04  1.8704855316620795e-02  -2.9376509633527051e-09  -2.6616108167978693e-02  1.6689997659518922e-08  -6.4153891220867926e-09  -1.9976361926119664e-03  1.2975452661920624e-02  -1.0576698334792172e-08  1.9908385506936022e-09  -3.7462502719237658e-09  2.5434608488253838e-08  8.0706757880021679e-09  -5.7526069118923623e-09  4.7301231794781548e-09  -1.3251493753353686e-08  -1.3887606902364527e-09  -2.7453005506997327e-05  -1.7849061679180459e-07  -2.6890820730187682e-07  -9.7523864663786279e-08  -1.0741667863042195e-07  -5.6594220618210678e-06  3.6987516260019953e-09  -8.4216072411166632e-09  -1.2536838068316583e-08  -2.8170822037732835e-09  -5.5128849244259098e-09  -2.5689955426902264e-07  -9.5906082584564685e-03  1.0922966956591233e-02  -4.8262804602168641e-07  -2.1704050524763288e-07  5.6738550412451048e-09  -1.1684078466146259e-09  5.2070945496650087e-09  3.8217517984029257e-08  -7.1477951421389805e-04  1.3171840584480362e-03  -5.0576987753279381e-05  1.0281485775480394e-08  1.3297761957686925e-03  -5.3810968607284453e-03  -3.5833681937117392e-08  -6.6050692432935382e-08  1.0576061886517934e-06  -1.4730694144474752e-02  1.8737269469845923e-05  2.5196430368508674e-07  -1.0846154360689494e-06  3.5676682234891304e-09  5.2868773762039447e-09  1.1212320844933148e-09  1.3944743947467680e-09  8.0395038544854107e-08  7.1781028589104296e-09  -2.6528798076445733e-08  -6.0458316588161730e-09  2.1688020384219625e-09  2.7346488264397954e-02  -2.6364573342178487e-09  1.1065937537127406e-04  -6.4084030615733334e-09  1.0102871892162619e-03  -3.0773102082716321e-07  3.7573687544197439e-08  -2.4605831983282460e-09  -3.3190933634067137e-08  -2.9805355042948747e-04  3.3087340212297072e-05  -1.6273056063895489e-09  9.1027178711471148e-07  1.7237771048848321e-09  3.4691238711467744e-09  -6.0212976719770668e-09  -9.2211274672633541e-09  1.1669535919806488e-08  -1.5368935213491092e-03  8.7785502758576129e-10  -6.8487025784269779e-04  -4.8454009615760462e-07  3.8273327788351218e-07  -3.0528693722160407e-03  -1.8451638839093742e-02  -8.1713522829718810e-04  4.3107552741605114e-03  -7.9672413978242040e-03  -8.5918681733758797e-06  2.9996106870400575e-10  -2.8370348637533591e-09  -3.3267993216902544e-06  9.8916294841614165e-09  -3.8998885353174633e-09  -2.8606951590548500e-09  -1.1753967434066509e-08  4.7443057552115903e-09  -4.6271988678407939e-09  -9.3059898013632573e-09  -4.2684592719289580e-06  8.3150994173893943e-07  2.0050498133249648e-07  -9.4315534115594549e-09  6.1023124337702889e-05  4.4936610130192015e-03  1.8573370818820430e-02  -1.8836988775615408e-06  2.4116222821548673e-09  -1.7255314687931560e-09  -4.0367845004449288e-09  -6.4336769715933525e-09  -2.2572563003499980e-07  3.8854795491553712e-07  -4.9143367007295751e-03  -1.7490640459481263e-04  7.1658633990940623e-06  7.8322000831217463e-06  5.5943052208661438e-09  1.6180469037969721e-02  2.4306971457601547e-08  5.7468855522439216e-10  5.3099146365020950e-09  9.4337342025594605e-09  -2.4133648868522088e-02  6.5590076158557488e-09  1.8834633097058033e-03  1.2026324222962076e-07  -1.1447211873254541e-04  9.6534671179768954e-04  -4.9639808706678119e-09  -9.5862380978132137e-05  -4.9756050370270773e-08  -1.8629108274722944e-09  -1.7039145068566107e-03  -7.2092852736464625e-05  -8.3312375277924016e-09  -9.6630580011492489e-09  3.4519561983815715e-08  -2.1383563514174239e-08  2.1778352393807158e-09  3.1952699756391857e-05  2.4429189491672328e-09  -5.2374207451795505e-09  1.0103507933977376e-08  1.9182558970934227e-04  -3.8644567436324622e-08  -2.2308250817679292e-09  -8.4434545411028712e-07  7.5185794711222559e-08  -1.9273880292749878e-05  6.9993169577220731e-04  -1.5597727972607061e-02  -1.2290727656780727e-02  -1.6191176766123520e-02  6.4968493063107995e-03  1.8354944360708673e-02  8.4777351703784851e-09  3.9071763848550044e-09  5.8677259149004509e-10  -5.2734472282301158e-08  -6.7721435080294001e-05  -4.3979284317855935e-07  -7.8181433827784766e-07  3.7489819920007328e-09  1.1114960343884886e-07  1.1449472113058251e-02  1.3751160092563390e-07  -1.8838784283044485e-08  2.6962135604299919e-09  -3.2326258158573346e-09  4.6179127319340362e-09  8.8174685193451456e-04  3.9032010764776095e-09  -3.3883325136471574e-09  1.9501468854295267e-02  2.7959177531665749e-04  -1.2305407591662435e-07  4.0232832369765177e-10  1.3611790082608064e-09  -1.1887136565611144e-09  -3.4060927965180749e-03  -2.2149288076995556e-04  -8.4636523739094998e-09  1.2123763600038253e-08  8.9974973090809991e-07  5.8267087377030729e-08  -4.8995311816068296e-09  -5.1274171091543135e-09  -4.5747855651986107e-09  -1.8576438041710960e-05  -1.4358774443133148e-08  -5.5786346010914996e-09  5.2754857234057649e-03  -2.7912834370992325e-11  -1.1568905371681519e-08  2.7142558262433066e-09  -6.9083350218601632e-09  -5.1261835167198990e-09  -1.5563755983865658e-09  1.1042912320149986e-08  -2.0138342284208707e-09  8.3633850785575335e-09  -9.6635518947724427e-09  -2.4651799821518085e-09  1.7686598927620325e-09  -2.1310514767607169e-09  -2.3137249456642427e-02  2.3780517922585748e-02  -1.6859085150421255e-08  -5.0175630371100705e-09  2.5431605162857324e-09  2.4416333745314351e-09  6.2516081859346419e-09  -6.4573501572435397e-08  -1.5241730973302933e-02  -1.0538557055655043e-08  -8.8053937067002720e-09  2.8961957341119798e-06  -5.8630858514533549e-09  -2.2771336235158211e-04  -2.3671663967813950e-08  -4.1882904522923080e-04  -1.8595399035154088e-08  -4.1329956952989779e-09  -1.4324189486140770e-08  -1.2301549672786428e-08  6.3402629507901019e-10  1.2889808206364612e-03  3.4360564093991394e-03  -5.8679778912637861e-09  7.3348263983664218e-09  -1.0871832732668680e-09  -2.6311437210948385e-04  4.8744096391449889e-05  -8.2442505204658496e-08  5.8894458528640202e-08  4.7542475054100122e-06  1.0995370228263725e-05  6.1768736489713274e-08  2.4984573105212985e-07  9.5385907962175798e-08  1.1965110660402681e-08  9.1540250201366980e-09  3.3200385398651747e-09  -1.0642227721012846e-07  -9.2309989453254855e-09  1.6730710666393097e-10  1.3505674112834597e-09  -2.4833911647208637e-10  1.3208417940316049e-05  8.7351585895801558e-09  -1.7442183394559055e-04  2.1605030261513345e-05  2.3984846511835186e-08  6.0979388461203217e-09  3.7788981919867670e-07  -3.8741257365679047e-07  -1.8442552561034910e-09  1.2895199612251698e-07  1.4998723805276951e-05  1.4613460484304430e-02  -1.6735271001556518e-02  -1.2870809984316440e-02  -3.1808365378393714e-09  -1.7075580793601154e-09  9.5309403557775814e-09  5.0372273936361608e-09  1.6834684075472993e-07  1.2303257406870041e-07  6.6662616719937394e-04  1.1200652304853283e-04  2.8512268053823491e-08  -1.3974170838171083e-08  -1.4561110604746650e-08  1.0033319179872946e-04  1.0827813556475896e-08  -1.3021831176162563e-06  -1.1410494471015699e-06  9.1723552782620493e-09  -6.6081290153109261e-03  -1.8323207470556975e-09  -2.4239543879747812e-02  2.1174621544341066e-02  1.6748319405224484e-02  2.4763375508001954e-07  -7.3469447582102907e-08  -1.3293994493576490e-05  -1.8262114467275183e-08  -2.2345493181876607e-04  5.7481275311973929e-03  -1.6715528