<?xml version="1.0"?>
<VTKFile type="UnstructuredGrid"  version="0.1"  >
<UnstructuredGrid>
<Piece  NumberOfPoints="2937" NumberOfCells="5112">
<Points>
<DataArray  type="Float64"  NumberOfComponents="3"  format="ascii">-20 2.5 0  -20 0 0  -1 0 0  -0.9996988186962042 0.02454122852291233 0  -0.9987954562051724 0.04906767432741797 0  -0.9972904566786902 0.07356456359966773 0  -0.9951847266721968 0.09801714032956083 0  -0.99247953459871 0.1224106751992163 0  -0.989176509964781 0.1467304744553618 0  -0.9852776423889412 0.1709618887603012 0  -0.9807852804032304 0.1950903220161286 0  -0.9757021300385285 0.21910124015687 0  -0.970031253194544 0.2429801799032641 0  -0.9637760657954398 0.2667127574748985 0  -0.9569403357322088 0.2902846772544624 0  -0.9495281805930367 0.3136817403988914 0  -0.9415440651830207 0.3368898533922203 0  -0.9329927988347388 0.3598950365349883 0  -0.9238795325112867 0.3826834323650899 0  -0.9142097557035307 0.4052413140049899 0  -0.9039892931234433 0.427555093430282 0  -0.8932243011955152 0.4496113296546069 0  -0.8819212643483549 0.4713967368259979 0  -0.8700869911087113 0.4928981922297841 0  -0.857728610000272 0.5141027441932218 0  -0.8448535652497071 0.5349976198870972 0  -0.8314696123025453 0.5555702330196022 0  -0.8175848131515836 0.5758081914178454 0  -0.8032075314806448 0.5956993044924335 0  -0.7883464276266062 0.6152315905806269 0  -0.773010453362737 0.6343932841636455 0  -0.7572088465064846 0.6531728429537766 0  -0.7409511253549589 0.6715589548470186 0  -0.7242470829514668 0.6895405447370671 0  -0.7071067811865475 0.7071067811865476 0  -0.6895405447370669 0.7242470829514669 0  -0.6715589548470184 0.740951125354959 0  -0.6531728429537765 0.7572088465064847 0  -0.6343932841636454 0.7730104533627371 0  -0.6152315905806267 0.7883464276266063 0  -0.5956993044924334 0.8032075314806449 0  -0.5758081914178453 0.8175848131515837 0  -0.555570233019602 0.8314696123025455 0  -0.534997619887097 0.8448535652497072 0  -0.5141027441932217 0.8577286100002721 0  -0.492898192229784 0.8700869911087115 0  -0.4713967368259977 0.881921264348355 0  -0.4496113296546067 0.8932243011955152 0  -0.4275550934302819 0.9039892931234434 0  -0.4052413140049897 0.9142097557035307 0  -0.3826834323650897 0.9238795325112867 0  -0.3598950365349882 0.9329927988347388 0  -0.3368898533922199 0.9415440651830208 0  -0.3136817403988914 0.9495281805930367 0  -0.2902846772544622 0.9569403357322089 0  -0.2667127574748983 0.9637760657954398 0  -0.2429801799032639 0.970031253194544 0  -0.2191012401568697 0.9757021300385286 0  -0.1950903220161282 0.9807852804032304 0  -0.1709618887603012 0.9852776423889412 0  -0.1467304744553616 0.989176509964781 0  -0.1224106751992162 0.99247953459871 0  -0.09801714032956065 0.9951847266721969 0  -0.07356456359966733 0.9972904566786902 0  -0.04906767432741801 0.9987954562051724 0  -0.02454122852291214 0.9996988186962042 0  6.123233995736766e-17 1 0  0.02454122852291226 0.9996988186962042 0  0.04906767432741813 0.9987954562051724 0  0.07356456359966745 0.9972904566786902 0  0.09801714032956077 0.9951847266721968 0  0.1224106751992163 0.99247953459871 0  0.1467304744553617 0.989176509964781 0  0.1709618887603014 0.9852776423889412 0  0.1950903220161283 0.9807852804032304 0  0.2191012401568698 0.9757021300385286 0  0.242980179903264 0.970031253194544 0  0.2667127574748984 0.9637760657954398 0  0.2902846772544623 0.9569403357322089 0  0.3136817403988916 0.9495281805930367 0  0.3368898533922201 0.9415440651830208 0  0.3598950365349883 0.9329927988347388 0  0.3826834323650898 0.9238795325112867 0  0.4052413140049899 0.9142097557035307 0  0.4275550934302822 0.9039892931234433 0  0.4496113296546066 0.8932243011955153 0  0.4713967368259978 0.8819212643483549 0  0.4928981922297841 0.8700869911087113 0  0.5141027441932217 0.8577286100002721 0  0.5349976198870973 0.844853565249707 0  0.5555702330196023 0.8314696123025452 0  0.5758081914178453 0.8175848131515837 0  0.5956993044924335 0.8032075314806448 0  0.6152315905806268 0.7883464276266062 0  0.6343932841636455 0.773010453362737 0  0.6531728429537768 0.7572088465064845 0  0.6715589548470183 0.7409511253549591 0  0.6895405447370669 0.7242470829514669 0  0.7071067811865476 0.7071067811865475 0  0.724247082951467 0.6895405447370668 0  0.7409511253549591 0.6715589548470183 0  0.7572088465064846 0.6531728429537768 0  0.773010453362737 0.6343932841636455 0  0.7883464276266063 0.6152315905806268 0  0.8032075314806449 0.5956993044924334 0  0.8175848131515837 0.5758081914178453 0  0.8314696123025452 0.5555702330196022 0  0.8448535652497071 0.5349976198870972 0  0.8577286100002721 0.5141027441932217 0  0.8700869911087115 0.492898192229784 0  0.881921264348355 0.4713967368259976 0  0.8932243011955153 0.4496113296546065 0  0.9039892931234433 0.4275550934302821 0  0.9142097557035307 0.4052413140049899 0  0.9238795325112867 0.3826834323650898 0  0.932992798834739 0.3598950365349881 0  0.9415440651830208 0.3368898533922201 0  0.9495281805930367 0.3136817403988915 0  0.9569403357322088 0.2902846772544623 0  0.9637760657954398 0.2667127574748984 0  0.970031253194544 0.2429801799032639 0  0.9757021300385286 0.2191012401568698 0  0.9807852804032304 0.1950903220161282 0  0.9852776423889412 0.1709618887603012 0  0.989176509964781 0.1467304744553617 0  0.99247953459871 0.1224106751992162 0  0.9951847266721969 0.0980171403295606 0  0.9972904566786902 0.07356456359966743 0  0.9987954562051724 0.04906767432741801 0  0.9996988186962042 0.02454122852291229 0  1 0 0  20 0 0  20 2.5 0  0 2.5 0  -10 2.5 0  10 2.5 0  -10.5 0 0  -5 2.5 0  10.5 0 0  5 2.5 0  -5.75 0 0  5.75 0 0  -15.25 0 0  -15 2.5 0  15.25 0 0  15 2.5 0  -17.625 0 0  -17.5 2.5 0  17.5 2.5 0  17.625 0 0  12.5 2.5 0  12.875 0 0  -12.5 2.5 0  -12.875 0 0  -2.5 2.5 0  2.5 2.5 0  -8.125 0 0  -7.5 2.5 0  8.125 0 0  7.5 2.5 0  -3.375 0 0  3.375 0 0  -18.75 2.5 0  20 1.25 0  16.4375 1.19375 0  -16.25 2.5 0  13.75 2.5 0  -14.0625 0 0  -11.6875 0 0  11.6875 0 0  8.75 2.5 0  -8.75 2.5 0  6.9375 0 0  6.25 2.5 0  -6.25 2.5 0  -9.3125 0 0  -6.9375 0 0  9.3125 0 0  11.25 2.5 0  -11.25 2.5 0  3.75 2.5 0  4.5625 0 0  -4.5625 0 0  -3.75 2.5 0  -13.75 2.5 0  14.0625 0 0  -16.4375 0 0  -20 1.25 0  -18.8125 0 0  18.75 2.5 0  -18.21875 1.2359375 0  18.125 1.278125 0  -15.84375 1.2125 0  -14.375 1.30859375 0  14.65625 1.203125 0  2.1875 0 0  -2.1875 0 0  13.125 1.315625 0  3.125 1.315625 0  -3.125 1.315625 0  -12.28125 1.1890625 0  -5.15625 1.184375 0  11.09375 1.184375 0  5.625 1.325 0  -10.97262068800044 1.220713793599868 0  9.375 1.32734375 0  -6.875 1.32734375 0  -9.67626828410207 1.24449497187193 0  8.061334925608099 1.312208731402025 0  -8.188665074391901 1.312208731402025 0  -1.25 2.5 0  1.25 2.5 0  4.37465139623265 1.41327350462657 0  16.25 2.5 0  6.84375467392576 1.430449641528851 0  -1.846573640185365 1.334702047669377 0  1.846573640185365 1.334702047669377 0  -17.02955351149946 1.396129584721571 0  16.4375 0 0  18.8125 0 0  -13.31314667860176 1.511193493282891 0  -4.122005747945582 0.961844908681634 0  12.12799425205442 0.961844908681634 0  15.54930641305724 1.660405980876393 0  19.0578783583929 0.9559530595267438 0  8.71875 0.6864560603786576 0  -7.53125 0.6864560603786576 0  -0.6257799091428727 1.819008129832856 0  0.6257799091428734 1.819008129832855 0  6.291331569065717 0.7194652423646902 0  -19.11204717950418 0.9044926794710327 0  -4.488713231834613 1.772186102355655 0  11.76128676816539 1.772186102355655 0  -19.28185607205105 1.781856072051052 0  19.30868080343342 1.808680803433421 0  9.90625 0.6371857066656857 0  -6.34375 0.6371857066656857 0  3.796921710049233 0.7617406159238448 0  7.392020585015773 0.7480839107774819 0  -8.910372062800235 0.7929553447587234 0  10.2506781820361 1.451853913138859 0  -5.999321817963904 1.451853913138859 0  4.957643119381741 0.7716423099297361 0  17.29984375 0.8640625 0  15.41193625859067 0.8279888354083842 0  -13.72251704931534 0.7728002662082776 0  16.875 2.5 0  17.12178336313261 1.690954734835967 0  -11.64001625260176 1.74572103154608 0  2.477726735235857 0.7850262278604345 0  13.46875 0 0  13.765625 0.7802887470308788 0  -2.78125 0 0  -2.477726735235857 0.7850262278604346 0  -10.33383379274331 1.744431431923121 0  13.91957519050334 1.653419259628842 0  -15.08147780274903 0.8341506893754731 0  -15.14066649024666 1.671962869821843 0  -8.950686484882164 1.678622661163363 0  -17.55392917606836 0.794731598412167 0  -16.80247533599675 0.6688259240674158 0  -12.94289066923278 0.7766744225472476 0  -9.90625 0 0  -10.31601468672093 0.7730817089126454 0  -18.21875 0 0  -12.28125 0 0  -17.68515668569534 1.768907656575843 0  18.21875 0 0  10.85059123027421 1.880344717307101 0  -5.399408769725794 1.880344717307101 0  -3.738137326223278 1.749164834446819 0  -3.125 2.5 0  12.46235897590077 1.601301060091387 0  -11.09375 0 0  -11.61661448001209 0.7781698802173554 0  -15.625 2.5 0  -1.764022608759088 0.6027229563180789 0  1.59375 0 0  -8.125 2.5 0  8.125 2.5 0  8.713468311289519 1.727645658498745 0  9.375 2.5 0  -7.536531688710481 1.727645658498745 0  -6.875 2.5 0  14.375 2.5 0  17.78381794101733 1.874391370085592 0  18.59891476281433 1.80649740393129 0  -18.58835555265984 1.824268641341969 0  1.806126122135773 0.6510673837470153 0  -16.875 2.5 0  -16.36681393636619 1.755298393865037 0  -16.13072438662071 0.6014017614895231 0  -13.92460230791385 1.83195710210235 0  -14.40198779087891 0.6105385965811564 0  20 0.625 0  19.40625 0 0  14.6875 1.888836596385542 0  14.65625 0 0  12.78248197181444 0.6991460920542635 0  -3.467518028185561 0.6991460920542635 0  13.125 2.5 0  2.491957142932539 1.738660596534321 0  3.125 2.5 0  1.875 2.5 0  3.718973573227002 1.75927763286174 0  -2.491957142932539 1.738660596534321 0  -1.875 2.5 0  -9.375 2.5 0  6.2001972846108 1.772767401802766 0  5.625 2.5 0  5.027483518098582 1.760895488350309 0  5.625981449127788 0.6566963631252629 0  -12.30101114679273 1.859484693920165 0  9.742489932362783 1.884363450023167 0  -6.507510067637216 1.884363450023166 0  1.13492303295015 1.283502262067074
[...]
<PointData  Scalars="f_7038100"> 
<DataArray  type="Float64"  Name="f_7038100"  format="ascii">1.4868172728552905e-05  -5.1740673542095696e-06  -1.5187565472178591e-03  -1.3145928186006422e-03  -1.6367961102461913e-03  -2.9632998744096401e-03  -3.6739963045582611e-03  -4.2072669303348728e-03  -5.5909833647841594e-03  -7.5229259052192023e-03  -7.1395588496431569e-03  -1.0161289127852576e-02  -1.2811151946901586e-02  -1.4723099531558302e-02  -1.6307271602085959e-02  -1.8239857744247221e-02  -2.0755299825589039e-02  -2.3274843870607468e-02  -2.5973190092328270e-02  -2.8298717484257659e-02  -3.1092515395568013e-02  -3.4048578159907847e-02  -3.6495071906299123e-02  -3.9540919793950705e-02  -4.2512612773782862e-02  -4.4863527189750993e-02  -4.7906665074795712e-02  -4.9812822168664520e-02  -5.2155150800192979e-02  -5.5660047940662857e-02  -5.8232017790427151e-02  -6.1496652134949439e-02  -6.3684026038836786e-02  -6.4014457482259438e-02  -6.6889703590256186e-02  -6.8745241086864070e-02  -6.8729915828241048e-02  -7.2232751756073577e-02  -7.3025672329900704e-02  -7.2153508179690323e-02  -7.3205979889861217e-02  -7.5054838446839342e-02  -7.4816356344046500e-02  -7.3164047310556354e-02  -7.1770466975279640e-02  -7.1238193310227862e-02  -6.8713322938481272e-02  -6.9142793205645328e-02  -7.0001405472697384e-02  -6.9165095727349427e-02  -6.5211734283121076e-02  -6.1821889378754977e-02  -6.0606377786770041e-02  -5.7337492727122574e-02  -5.2576537899100752e-02  -4.7880344994744223e-02  -4.3038519872531329e-02  -4.1190084709379168e-02  -3.7238048464955729e-02  -3.1972138743294028e-02  -2.9699752360368051e-02  -2.5316282824548959e-02  -2.0182943465065131e-02  -1.5988011949586815e-02  -1.1650111545810735e-02  -6.6912339764950155e-03  -1.9865122621329613e-03  2.8590414767421584e-03  7.1763933433123825e-03  1.2221387616873088e-02  1.7150341713302517e-02  2.1111711653267324e-02  2.5624894747288293e-02  3.1097379886173733e-02  3.5419360975386706e-02  3.8405132302043114e-02  4.2713800197109554e-02  4.8523032812281763e-02  4.9345413563223271e-02  5.1136774858984449e-02  5.6150168412173310e-02  6.0737795842733790e-02  6.3254420076516715e-02  6.4162627984873280e-02  6.6163377946109270e-02  6.8398446280204306e-02  6.9642682247890664e-02  7.2148442645830368e-02  7.3123910990489871e-02  7.1938164669664906e-02  7.1854044390485608e-02  7.3736018617520285e-02  7.3428018591290972e-02  7.1074115278577182e-02  7.0110626792960720e-02  7.1183221887944598e-02  7.0159191069163518e-02  6.7040755464366511e-02  6.6602718178489964e-02  6.4534403923777697e-02  6.0979039193434170e-02  5.8989103085172315e-02  5.8380178588341707e-02  5.5739107449541740e-02  5.3556641955192018e-02  5.0758415454927090e-02  4.7299619108030017e-02  4.4871877697983002e-02  4.1811520071958208e-02  3.9794618925441061e-02  3.6749232266894007e-02  3.3718657365789328e-02  3.1240252136402424e-02  2.8531165958890967e-02  2.5512073702326624e-02  2.3631640422211910e-02  2.1235062282807859e-02  1.8260536650564627e-02  1.5914519471980824e-02  1.3834803082007446e-02  1.2725006480681908e-02  1.0629623986736645e-02  8.7344615385975266e-03  6.8012338170774884e-03  5.2791892504348613e-03  4.4197466289384408e-03  3.5722659764978767e-03  2.8267210235585474e-03  1.4815031983626350e-03  1.0342179700075565e-03  8.9469087591373668e-04  4.8184768787630476e-10  -3.1046701860027937e-10  -3.2439716063151772e-04  -1.9041877073869780e-08  1.0489573188664068e-08  4.2635206913143965e-08  1.2172641972427170e-04  -4.6538674652457653e-08  -1.0908513232621450e-04  -5.7338533165005783e-05  5.6758187482082093e-05  7.4646988977347305e-09  3.5901435235451134e-09  -5.1227725126282548e-10  1.9395596333014197e-10  1.1354256927915246e-07  2.3419520840754953e-07  -5.6879529442516199e-11  2.4243563335975595e-09  1.2124217464027458e-09  -1.9694508663116401e-09  -1.3191249581904471e-09  2.7752297220903133e-09  3.8579048372030800e-03  -3.0267275166701094e-03  3.6862077205411929e-07  7.5803194440660644e-07  -4.1570537700529202e-07  -9.8002131911154882e-07  -2.9884029516187450e-03  3.0580652227478540e-03  1.7993199497005654e-06  -4.2411558130275744e-10  -1.2000721895038195e-11  3.1350935124458663e-08  -4.1798015624157149e-11  4.4283565887459434e-09  8.0557701560910717e-09  -1.0282605041190590e-08  8.9256308182846998e-09  -2.2073913737719178e-08  3.2195037203127066e-06  -1.2097673301333354e-05  1.0875809972613723e-05  1.9317156402013192e-07  -3.7568738468319077e-06  -1.8583480062160435e-07  4.2863488192395219e-09  -4.1706513006998348e-09  -7.8214302112442340e-04  4.8063552457409568e-04  -4.8996998277619022e-04  7.3515016963078431e-04  -4.5350115750350784e-11  -5.7031928182805876e-10  2.5303939521869082e-08  -1.4316507468674450e-06  4.5435872426346301e-07  -8.2813074253287718e-10  2.7466324610215447e-07  -7.9922501137862051e-10  1.2007146689456402e-08  -3.5812030946010768e-10  -7.1750021821618550e-11  1.3460815659885500e-02  -1.3304513498877749e-02  6.7838269604603926e-10  -1.5884387171885494e-03  1.4234465684605335e-03  -4.4420174900238106e-10  4.8743450274348092e-05  2.9121035454162111e-09  -3.2340374122139063e-05  -4.0318091651936631e-09  3.1945224550416446e-08  2.3303101750100735e-06  -2.1033745050255209e-08  -1.3146501924136046e-07  1.4848227157417681e-08  7.0290249243585290e-03  -7.1053622808157505e-03  -3.4726476574712637e-04  -3.4315438865601655e-10  -3.2693039018568495e-06  4.6842027016668827e-03  -4.8919377269741188e-03  7.1976929752877245e-08  5.8009895872774495e-10  2.7716511552283990e-09  -1.4343719878797835e-09  -7.5113228498199444e-05  -1.1420024454986958e-09  -4.1650059489659536e-10  -4.2340119314525751e-11  -2.1834603759462498e-07  2.1968413285395471e-07  1.0945371433431628e-02  -1.1671797927612878e-02  5.6356571087376962e-06  -2.0812773403214803e-07  3.7563594482956423e-04  5.6704829950382048e-09  1.5295536488946315e-06  -1.2730355136604395e-09  -5.7887854767110182e-08  -7.5089558251277899e-06  5.9999348616572600e-04  -2.8151767021184629e-07  1.4067888630460675e-07  2.0461999426599139e-08  1.6913256367611810e-05  7.6388458315471770e-05  6.8238481036672998e-11  2.5411670460415825e-10  1.6060769430192060e-09  -6.7150094923153991e-10  -6.7586535872914501e-10  -4.9223303517783006e-09  3.6980592543019849e-03  -8.5358383195096034e-10  -4.5689414618161305e-10  -6.7398083317443324e-03  -3.8279250270961112e-03  -3.1953026566000660e-08  4.5743256631731272e-10  4.1462698562998766e-09  3.5206753494244929e-09  -1.5143325160926679e-07  1.0920746439418627e-07  4.1900875496870250e-08  1.6098628091302053e-09  9.0682528584047297e-08  2.3605401694218725e-08  2.2388969359621238e-07  4.4746522284002110e-09  2.1023714341447820e-07  2.7387732129655960e-09  1.5049063664024380e-08  7.5028859019779978e-05  1.1910725716311125e-03  1.7339306394227548e-03  1.6670516858115890e-09  1.7496193221758068e-08  3.2080698673615173e-09  1.1265202238880171e-08  -1.0063212456423836e-02  2.3664643478267706e-02  1.0221388661159127e-07  -2.1035910872840911e-07  1.5137392983061940e-07  9.0941506286280033e-09  1.3077074217984017e-07  2.7048611682664697e-06  3.2899312289111599e-10  -1.3673822307215014e-09  -1.3391728572340631e-09  9.4933703063045364e-07  8.2422131394118085e-03  8.0070993702754560e-08  3.5747926231739942e-08  1.5938701606372363e-08  -1.5724404086425023e-09  3.4299864832168956e-09  1.6586412969323718e-10  2.5507753666744854e-09  1.8742532988927763e-10  -3.2441777211394908e-10  -1.2127062806962987e-09  -1.2347714684006156e-03  4.0940383915230153e-10  -5.8512541117962651e-03  -1.6628024320976462e-03  -4.5766825367936168e-03  -1.2294053961806107e-03  5.8733025379363478e-03  5.4953332306173852e-03  -2.8682332317030713e-08  -1.4776018596507447e-05  -4.1855526430548281e-05  -1.6555331787029273e-04  3.1592631224888092e-05  -2.6159808901481054e-09  6.4884744144363808e-08  6.1478275958989053e-06  -5.1366769507038140e-03  4.9650183722190194e-03  -7.0548676277355224e-09  -1.8980779555984322e-04  -2.0817594771526198e-08  -2.7678621720527215e-05  -4.4873259049270881e-10  2.6229983481206088e-03  7.4327898205593743e-11  1.8654820670777306e-10  2.9942421986347393e-07  -3.7398834072873144e-07  -4.7915079986551683e-07  1.3274813988750318e-02  -1.3408917007124075e-02  -1.2836178062202437e-08  -4.7499146752276625e-09  -1.3257580723924462e-03  -7.7378811680745937e-08  8.9962546639453750e-08  3.5364652309288737e-10  6.3075430435993310e-07  -5.9735287641410196e-10  1.1345605306088384e-07  1.1943213011143194e-06  -5.2541321649057895e-06  9.7695342816682528e-10  -3.8027012444664224e-06  -3.1462511848598423e-04  -3.3369039931698105e-04  -1.1355424223653963e-08  -4.5627585764780880e-10  -2.3388288876850710e-09  5.7556214414096672e-06  2.2463217879788260e-09  3.0007546781787923e-04  -5.8090438360314982e-03  5.2566375615236156e-03  -6.6243805083605783e-11  3.8055361495546109e-06  -4.1385779013151281e-10  -5.1518689223872634e-10  7.4971147511296229e-09  3.6296269664530051e-05  1.1683135746429925e-08  1.3143610392815217e-08  6.4660654863373383e-10  -1.7673606668116285e-04  -2.1528997831379583e-08  -4.7501381432102155e-10  3.3868077541265550e-12  -2.6392035741330657e-07  1.9259006233125057e-07  2.5880757528296409e-09  -1.6954383219801506e-06  -1.2723433437451766e-07  -2.3709068788375021e-02  6.0169222976710096e-09  3.5915167825279861e-09  1.8806620792725872e-04  3.1238147018841283e-07  1.4357499853821755e-07  1.3185109031717815e-03  -1.5612513763759697e-05  -9.8064061300397621e-08  1.7281371032559022e-05  -1.7057168788828229e-07  -3.3134482095148261e-07  5.5639858540024216e-08  1.1181765829281625e-08  7.0692278934653538e-03  1.0923740807409011e-09  -3.0107198585047137e-03  6.1752750997850148e-10  2.8899203146261184e-03  -6.0483974374463814e-05  3.0475582887676368e-08  1.2274893569596047e-09  3.9377295181202744e-04  7.9538009914719886e-09  7.4585905467333954e-08  2.0655526057235602e-06  3.2066688327163756e-10  -3.8352073766072606e-04  -1.0600289041929491e-09  -6.7865233911561851e-10  -6.6320299894140617e-10  -2.9119472616752192e-10  2.6250422497533030e-05  3.2233336041055312e-08  -1.6035946531754873e-09  -2.4268143152358717e-06  3.5361246291008824e-07  1.0331778644043472e-04  8.0645419648451945e-10  4.3467819783868746e-04  -7.5369374911322239e-06  -1.1176419467316922e-09  2.8137754908467746e-07  -2.3349044803853051e-08  1.3139906599478082e-06  1.1965269884391352e-07  2.7017936268319804e-09  1.3117019115691808e-07  -5.1581019707107997e-07  9.8460043265617491e-10  -6.4322457323708851e-04  -5.3113780707701231e-09  -8.4843418061575477e-11  1.5477364553570484e-10  -5.1626403135686286e-04  -3.8996605565483522e-03  -7.0039692257663354e-05  -6.7488283022635895e-10  -9.1489990270573496e-10  -5.4268063749944561e-10  6.5015840070415678e-04  1.6169159377102410e-07  6.6501578161543059e-03  -8.4215846520144712e-03  -7.0753409058011682e-09  -1.0859275442901379e-07  -1.3095815285819582e-09  -1.6264627610701840e-09  6.8324774668725352e-10  -1.1143433803926459e-10  5.8549462712976305e-10  6.0287459874364904e-09  -5.7865949433410624e-10  1.0738207919988894e-02  2.2659380156206349e-10  -2.3690437041674031e-03  3.0862736486453684e-03  -2.5755081721869319e-07  -3.4845163802986142e-06  -4.0569311912135576e-06  6.6567697618884282e-08  -7.2686507034677144e-10  -1.0219431426921641e-02  1.3784002436705372e-02  -1.4232690074076645e-02  2.9540959055241512e-03  -3.5429817993466377e-03  2.8489412746198070e-09  5.5159400789047209e-09  2.0950131066096669e-11  -6.9284654878333247e-04  -1.6524413496830743e-10  -1.0629781422756066e-07  -1.8093270561085631e-10  1.2667765088093631e-09  -1.2784712927760868e-09  -1.8169329033818725e-08  -1.1270017878455517e-04  5.7374272186248227e-07  -6.6396908812362492e-08  1.7415091774412262e-04  7.6317706466911971e-09  9.3017736027074802e-11  -3.5158481479930626e-07  2.7260656570330250e-07  -1.3384634088470469e-07  -6.6456536944992960e-06  5.0328469899287364e-09  5.1269564421382495e-07  2.5737767600126166e-05  -2.3649448663959535e-06  1.0988413318235039e-08  2.5439618997131417e-06  -5.6866757781662962e-10  3.4462453863553181e-03  6.8204327676014330e-09  1.6758194373150248e-04  1.5641664519419139e-09  3.7466386133411565e-04  1.0736458833768510e-07  2.2529029864529204e-07  3.0963078509799428e-08  -9.8224266973155943e-10  -2.8103257060089970e-10  -2.6840737107757488e-08  5.8779063583789650e-03  -5.9659644601929834e-03  2.0307299886184304e-09  2.7124982454936691e-09  -1.1634112024914719e-08  2.3881385385231812e-06  5.2204985961124824e-06  1.3645036014752994e-05  3.3635307720211196e-08  8.6824260868474497e-06  8.1112873103955124e-06  -4.2963545088269531e-10  2.9321593956095859e-07  -2.3558070832520009e-05  -4.7518602097094574e-07  -2.1251217223038636e-03  -2.4087970592276014e-03  9.0941771842726399e-07  -1.0513845331437401e-06  6.7696688983317776e-08  -3.5604317479307765e-08  -5.0271344381168642e-08  -3.1353799050862508e-05  -1.2200683078639271e-04  1.8471742106973400e-03  -1.6430880281365158e-06  -1.8252428756995384e-06  2.7594906356978583e-04  6.0461223299538504e-10  -2.0386341174351154e-02  1.2411436555004175e-07  -2.8960392162724236e-09  -1.8563450866897842e-03  8.3609363401342725e-03  -1.4644534198456637e-11  4.8106448614244502e-08  -4.2103758669597619e-10  -5.0744159229423197e-08  7.0853291030435549e-09  1.8405918528542731e-09  1.2203367442176797e-09  -6.1281506156203260e-09  -7.2122255287098288e-09  -1.0880405720233161e-03  -1.2513266414349192e-07  -1.3384147537658404e-07  -6.4504074835191847e-08  -1.4743559340109429e-03  -1.2655014583614529e-07  -7.0705714404942906e-06  1.3655648591444439e-09  3.5450106947401431e-09  2.7512757160760778e-10  -5.6221004901901717e-11  2.4193710917231046e-08  -2.3870443757153425e-07  -8.2479680792241755e-03  9.1145440293140100e-03  -6.7985876670120709e-07  -2.5726479072656011e-07  -6.7617713388700749e-10  -1.0046167474538802e-09  7.6138904234891776e-09  3.2385728508739783e-08  -8.4981783247054324e-04  4.1435970393559568e-04  -9.1399067012394532e-05  -7.1345872573053959e-10  5.4886108827082950e-03  1.3670139333818523e-03  -4.4631904743136063e-03  -2.5496090815077681e-08  -4.4294869922880997e-08  -2.1424792490552095e-08  -1.0205669816038420e-02  3.1122262535145737e-06  1.0674074687373168e-07  4.4623719352618771e-07  1.3086097032445790e-07  1.5441289854778700e-07  7.3936705657256331e-12  -3.5247459331271944e-10  6.1931809949911951e-08  1.4863813945034980e-09  -1.5569989106610372e-08  -6.4693138531689292e-10  2.3092942093816344e-09  2.0987433368797395e-02  -4.3222933420420593e-10  1.2024464455699518e-04  -4.0755685498757486e-10  9.2579346019813660e-04  -1.2804623630667833e-07  2.9014091869641160e-08  -4.2176437926834693e-10  -1.4191386124146395e-08  -3.1166115645642705e-04  9.3130346155230603e-05  1.0643612256427434e-06  -3.4619623457673998e-07  3.7228131008642408e-07  9.7069433527790269e-08  -3.2755953093745343e-10  -2.6536811164197823e-09  8.3553678524290804e-09  -1.4947653139462691e-03  -3.3021024766778924e-09  -6.7934172473267857e-04  -3.8720176700472467e-07  1.4276065671278920e-07  -1.4080492699231658e-03  -1.1290501134933737e-02  -8.0356540898260409e-04  2.4166645714281602e-03  -4.8013372029418657e-03  -3.4532695165355192e-06  7.6168570466284499e-10  -9.9662936424871886e-10  -5.8314508185986923e-06  1.3029298111353124e-09  2.7985550301661668e-09  5.6069002206433421e-10  -7.9504511111554337e-11  4.5909383687255805e-09  -1.3028896330120455e-09  -2.6361236130517365e-10  -1.7093070526713566e-05  8.7885564259528797e-07  1.4078405972216465e-07  3.1624528548183653e-07  6.2159770640331604e-05  2.1389900133444570e-03  1.1232432672031674e-02  -1.1715697311025115e-06  3.3481550515499630e-08  2.5336627080948901e-08  6.6328660361030319e-08  5.0971114596492417e-08  -2.1504911496910892e-07  2.7124445641612278e-07  -3.5305828322094632e-03  -1.6063859450679373e-04  8.5726319999026259e-06  9.4850149185130139e-06  -1.4024833734489918e-09  1.2630581292246567e-02  1.1388411390590547e-08  1.2134442499129299e-07  2.2633974674837873e-08  5.5207724626888375e-08  -1.2767919949232244e-02  7.0696951761676764e-11  1.3943742104373235e-03  -1.9593827544943133e-06  -2.0084916341063543e-04  8.7203121976240109e-04  1.1204224580157982e-09  -1.0144234540119837e-04  -3.1717242091463309e-08  2.7364785866764315e-07  -1.3157722342222360e-03  -8.2489004979754608e-05  1.5617694009369979e-07  -1.3997949852684773e-09  2.1919318046260646e-08  6.5953085892903884e-05  4.0335678014229941e-09  4.0252121261530778e-05  4.3317334026320841e-10  4.0678069509304195e-09  2.8975272821766727e-04  3.8178952245704750e-03  -1.9105107424739582e-08  7.1646260549191516e-11  1.2585147127182028e-02  -1.3731820709142846e-06  -2.1950698110990808e-07  -1.9819304808198868e-05  6.9682328947127253e-04  -8.2771700086496161e-03  -1.0243228832911290e-02  5.5281355613840105e-03  8.6440264831957256e-03  8.7978087312714616e-10  -1.8341117810273644e-10  -1.3285237751542299e-09  -3.0347920330881763e-08  -7.6487735200716131e-05  4.9647754551202489e-06  2.6266383333862551e-06  1.5797765351996510e-08  6.5407614808798120e-08  1.3784055165033994e-07  -7.7571249855303791e-09  6.6763572001356694e-09  -3.5107801962269158e-11  -9.9013198801262780e-10  8.5856437109087724e-04  -5.0545479152572937e-09  -1.1557018841111838e-09  3.4674857141651173e-07  4.1225773285396600e-08  4.0397835497205598e-10  -1.5868714315222099e-09  -3.0915129819306885e-03  -4.5258102782921351e-04  1.0662068152659143e-10  1.1706436775380050e-08  -9.5005342032361956e-07  5.3380192846790220e-08  5.3898818077809548e-09  4.2043500087164081e-09  -8.5730014417606141e-09  -2.4973439758021250e-05  5.1417031809137179e-08  2.1119101539464730e-09  3.9489257400126793e-07  1.0292573309138796e-06  1.9738932742833083e-09  2.1826779070783101e-09  1.2008161397457382e-07  -1.3744215454938502e-09  -7.4378691067290632e-10  -1.7974152133982271e-09  3.4363823831505626e-09  -1.1266201441731136e-09  -3.7386625044685133e-11  6.8940175708645802e-10  3.5861580785080718e-10  -1.7748630934401616e-02  1.7300568481637309e-02  -2.0892856300861295e-09  -1.3153233432855628e-09  -1.9965989320436575e-09  2.0379148259241484e-09  2.4443247717284709e-09  -4.7028078882642743e-08  -1.0856782268919174e-02  -7.5626514570299591e-03  1.0608988976880313e-02  1.1534603281496800e-08  -2.6028225945149545e-09  -1.2961310766955896e-05  -3.6899501167684119e-09  -2.2274359331915083e-04  -8.8928632814607104e-09  -4.3147997190729897e-04  5.4035692893451520e-08  1.3377222842026619e-07  -4.2170378842612343e-10  2.5182681594527054e-08  1.5946518185237548e-08  1.5271933047158622e-03  3.4847028126230349e-03  1.3478097415094147e-10  4.2339992328135054e-10  1.4253524097257111e-09  -2.9273993872087526e-04  5.4867197609974670e-05  -5.8338556787983853e-08  4.1239084937533266e-08  9.4940798107126339e-06  3.6935665473846872e-06  3.8791250961610472e-08  7.1593739095991984e-06  7.2161016095655734e-08  4.7449694580184749e-10  5.3842173917808924e-10  7.5197142130667499e-11  -6.8047283943195891e-08  1.1110904434848433e-08  -4.8648804579366947e-08  -5.3192932157865684e-10  2.0766942948040760e-10  1.7060526228103474e-05  5.2169898536120998e-09  7.3056904234961454e-03  5.6123543295803207e-05  1.6689003810441451e-08  1.8418496615747953e-08  3.4587313456079854e-07  -4.0191344341182999e-07  7.9205267537237034e-10  5.4619543442826347e-07  -4.4388272531095640e-06  9.9940454737937404e-03  -1.2541702970405123e-02  1.2278783751840529e-02  -1.0265324606704105e-02  1.6438090595460796e-09  -3.0386781708170278e-09  2.0619741252615604e-09  -2.1929526606485839e-09  1.5740471785137003e-07  1.2608258092039028e-07  3.7826128098118332e-04  2.0515351144957190e-08  -4.4135954122219829e-07  4.2864115463085833e-11  1.0470865912618405e-04  -1.7021482732963907e-09  -1.3260417103887379e-06  -5.9994216386300270e-06  -1.4955835604051337e-09  -6.1061808987205677e-03  -1.1914622549410691e-09  -1.4344162084743551e-02  1.0408592783692133e-02  1.8133494385166956e-07  -8.1865986997873662e-08  -1.6283769842759270e-05  -1.3916300801957497e-08  -2.2965742558789419e-04  -1.0695750268741434e-07  -4.8140451235227835e-03  1.0034309612008440e-07  -9.9693154250972085e-08  -3.228