<?xml version="1.0"?>
<VTKFile type="UnstructuredGrid"  version="0.1"  >
<UnstructuredGrid>
<Piece  NumberOfPoints="2912" NumberOfCells="5086">
<Points>
<DataArray  type="Float64"  NumberOfComponents="3"  format="ascii">-20 2.5 0  -20 0 0  -1 0 0  -0.9996988186962042 0.02454122852291233 0  -0.9987954562051724 0.04906767432741797 0  -0.9972904566786902 0.07356456359966773 0  -0.9951847266721968 0.09801714032956083 0  -0.99247953459871 0.1224106751992163 0  -0.989176509964781 0.1467304744553618 0  -0.9852776423889412 0.1709618887603012 0  -0.9807852804032304 0.1950903220161286 0  -0.9757021300385285 0.21910124015687 0  -0.970031253194544 0.2429801799032641 0  -0.9637760657954398 0.2667127574748985 0  -0.9569403357322088 0.2902846772544624 0  -0.9495281805930367 0.3136817403988914 0  -0.9415440651830207 0.3368898533922203 0  -0.9329927988347388 0.3598950365349883 0  -0.9238795325112867 0.3826834323650899 0  -0.9142097557035307 0.4052413140049899 0  -0.9039892931234433 0.427555093430282 0  -0.8932243011955152 0.4496113296546069 0  -0.8819212643483549 0.4713967368259979 0  -0.8700869911087113 0.4928981922297841 0  -0.857728610000272 0.5141027441932218 0  -0.8448535652497071 0.5349976198870972 0  -0.8314696123025453 0.5555702330196022 0  -0.8175848131515836 0.5758081914178454 0  -0.8032075314806448 0.5956993044924335 0  -0.7883464276266062 0.6152315905806269 0  -0.773010453362737 0.6343932841636455 0  -0.7572088465064846 0.6531728429537766 0  -0.7409511253549589 0.6715589548470186 0  -0.7242470829514668 0.6895405447370671 0  -0.7071067811865475 0.7071067811865476 0  -0.6895405447370669 0.7242470829514669 0  -0.6715589548470184 0.740951125354959 0  -0.6531728429537765 0.7572088465064847 0  -0.6343932841636454 0.7730104533627371 0  -0.6152315905806267 0.7883464276266063 0  -0.5956993044924334 0.8032075314806449 0  -0.5758081914178453 0.8175848131515837 0  -0.555570233019602 0.8314696123025455 0  -0.534997619887097 0.8448535652497072 0  -0.5141027441932217 0.8577286100002721 0  -0.492898192229784 0.8700869911087115 0  -0.4713967368259977 0.881921264348355 0  -0.4496113296546067 0.8932243011955152 0  -0.4275550934302819 0.9039892931234434 0  -0.4052413140049897 0.9142097557035307 0  -0.3826834323650897 0.9238795325112867 0  -0.3598950365349882 0.9329927988347388 0  -0.3368898533922199 0.9415440651830208 0  -0.3136817403988914 0.9495281805930367 0  -0.2902846772544622 0.9569403357322089 0  -0.2667127574748983 0.9637760657954398 0  -0.2429801799032639 0.970031253194544 0  -0.2191012401568697 0.9757021300385286 0  -0.1950903220161282 0.9807852804032304 0  -0.1709618887603012 0.9852776423889412 0  -0.1467304744553616 0.989176509964781 0  -0.1224106751992162 0.99247953459871 0  -0.09801714032956065 0.9951847266721969 0  -0.07356456359966733 0.9972904566786902 0  -0.04906767432741801 0.9987954562051724 0  -0.02454122852291214 0.9996988186962042 0  6.123233995736766e-17 1 0  0.02454122852291226 0.9996988186962042 0  0.04906767432741813 0.9987954562051724 0  0.07356456359966745 0.9972904566786902 0  0.09801714032956077 0.9951847266721968 0  0.1224106751992163 0.99247953459871 0  0.1467304744553617 0.989176509964781 0  0.1709618887603014 0.9852776423889412 0  0.1950903220161283 0.9807852804032304 0  0.2191012401568698 0.9757021300385286 0  0.242980179903264 0.970031253194544 0  0.2667127574748984 0.9637760657954398 0  0.2902846772544623 0.9569403357322089 0  0.3136817403988916 0.9495281805930367 0  0.3368898533922201 0.9415440651830208 0  0.3598950365349883 0.9329927988347388 0  0.3826834323650898 0.9238795325112867 0  0.4052413140049899 0.9142097557035307 0  0.4275550934302822 0.9039892931234433 0  0.4496113296546066 0.8932243011955153 0  0.4713967368259978 0.8819212643483549 0  0.4928981922297841 0.8700869911087113 0  0.5141027441932217 0.8577286100002721 0  0.5349976198870973 0.844853565249707 0  0.5555702330196023 0.8314696123025452 0  0.5758081914178453 0.8175848131515837 0  0.5956993044924335 0.8032075314806448 0  0.6152315905806268 0.7883464276266062 0  0.6343932841636455 0.773010453362737 0  0.6531728429537768 0.7572088465064845 0  0.6715589548470183 0.7409511253549591 0  0.6895405447370669 0.7242470829514669 0  0.7071067811865476 0.7071067811865475 0  0.724247082951467 0.6895405447370668 0  0.7409511253549591 0.6715589548470183 0  0.7572088465064846 0.6531728429537768 0  0.773010453362737 0.6343932841636455 0  0.7883464276266063 0.6152315905806268 0  0.8032075314806449 0.5956993044924334 0  0.8175848131515837 0.5758081914178453 0  0.8314696123025452 0.5555702330196022 0  0.8448535652497071 0.5349976198870972 0  0.8577286100002721 0.5141027441932217 0  0.8700869911087115 0.492898192229784 0  0.881921264348355 0.4713967368259976 0  0.8932243011955153 0.4496113296546065 0  0.9039892931234433 0.4275550934302821 0  0.9142097557035307 0.4052413140049899 0  0.9238795325112867 0.3826834323650898 0  0.932992798834739 0.3598950365349881 0  0.9415440651830208 0.3368898533922201 0  0.9495281805930367 0.3136817403988915 0  0.9569403357322088 0.2902846772544623 0  0.9637760657954398 0.2667127574748984 0  0.970031253194544 0.2429801799032639 0  0.9757021300385286 0.2191012401568698 0  0.9807852804032304 0.1950903220161282 0  0.9852776423889412 0.1709618887603012 0  0.989176509964781 0.1467304744553617 0  0.99247953459871 0.1224106751992162 0  0.9951847266721969 0.0980171403295606 0  0.9972904566786902 0.07356456359966743 0  0.9987954562051724 0.04906767432741801 0  0.9996988186962042 0.02454122852291229 0  1 0 0  20 0 0  20 2.5 0  0 2.5 0  -10 2.5 0  10 2.5 0  -10.5 0 0  -5 2.5 0  10.5 0 0  5 2.5 0  -5.75 0 0  5.75 0 0  -15.25 0 0  -15 2.5 0  15.25 0 0  15 2.5 0  -17.625 0 0  -17.5 2.5 0  17.5 2.5 0  17.625 0 0  12.5 2.5 0  12.875 0 0  -12.5 2.5 0  -12.875 0 0  -2.5 2.5 0  2.5 2.5 0  -8.125 0 0  -7.5 2.5 0  8.125 0 0  7.5 2.5 0  -3.375 0 0  3.375 0 0  -18.75 2.5 0  20 1.25 0  16.4375 1.19375 0  -16.25 2.5 0  13.75 2.5 0  -14.0625 0 0  -11.6875 0 0  11.6875 0 0  8.75 2.5 0  -8.75 2.5 0  6.9375 0 0  6.25 2.5 0  -6.25 2.5 0  -9.3125 0 0  -6.9375 0 0  9.3125 0 0  11.25 2.5 0  -11.25 2.5 0  3.75 2.5 0  4.5625 0 0  -4.5625 0 0  -3.75 2.5 0  -13.75 2.5 0  14.0625 0 0  -16.4375 0 0  -20 1.25 0  -18.8125 0 0  18.75 2.5 0  -18.21875 1.2359375 0  18.125 1.278125 0  -15.84375 1.2125 0  -14.375 1.30859375 0  14.65625 1.203125 0  2.1875 0 0  -2.1875 0 0  13.125 1.315625 0  3.125 1.315625 0  -3.125 1.315625 0  -12.28125 1.1890625 0  -5.15625 1.184375 0  11.09375 1.184375 0  5.625 1.325 0  -10.97262068800044 1.220713793599868 0  9.375 1.32734375 0  -6.875 1.32734375 0  -9.67626828410207 1.24449497187193 0  8.061334925608099 1.312208731402025 0  -8.188665074391901 1.312208731402025 0  -1.25 2.5 0  1.25 2.5 0  4.37465139623265 1.41327350462657 0  16.25 2.5 0  6.84375467392576 1.430449641528851 0  -1.846573640185365 1.334702047669377 0  1.846573640185365 1.334702047669377 0  -17.02955351149946 1.396129584721571 0  16.4375 0 0  18.8125 0 0  -13.31314667860176 1.511193493282891 0  -4.122005747945582 0.961844908681634 0  12.12799425205442 0.961844908681634 0  15.54930641305724 1.660405980876393 0  19.0578783583929 0.9559530595267438 0  8.71875 0.6864560603786576 0  -7.53125 0.6864560603786576 0  -0.6257799091428727 1.819008129832856 0  0.6257799091428734 1.819008129832855 0  6.291331569065717 0.7194652423646902 0  -19.11204717950418 0.9044926794710327 0  -4.488713231834613 1.772186102355655 0  11.76128676816539 1.772186102355655 0  -19.28185607205105 1.781856072051052 0  19.30868080343342 1.808680803433421 0  9.90625 0.6371857066656857 0  -6.34375 0.6371857066656857 0  3.796921710049233 0.7617406159238448 0  7.392020585015773 0.7480839107774819 0  -8.910372062800235 0.7929553447587234 0  10.2506781820361 1.451853913138859 0  -5.999321817963904 1.451853913138859 0  4.957643119381741 0.7716423099297361 0  17.29984375 0.8640625 0  15.41193625859067 0.8279888354083842 0  -13.72251704931534 0.7728002662082776 0  16.875 2.5 0  17.12178336313261 1.690954734835967 0  -11.64001625260176 1.74572103154608 0  2.477726735235857 0.7850262278604345 0  13.46875 0 0  13.765625 0.7802887470308788 0  -2.78125 0 0  -2.477726735235857 0.7850262278604346 0  -10.33383379274331 1.744431431923121 0  13.91957519050334 1.653419259628842 0  -15.08147780274903 0.8341506893754731 0  -15.14066649024666 1.671962869821843 0  -8.950686484882164 1.678622661163363 0  -17.55392917606836 0.794731598412167 0  -16.80247533599675 0.6688259240674158 0  -12.94289066923278 0.7766744225472476 0  -9.90625 0 0  -10.31601468672093 0.7730817089126454 0  -18.21875 0 0  -12.28125 0 0  -17.68515668569534 1.768907656575843 0  18.21875 0 0  10.85059123027421 1.880344717307101 0  -5.399408769725794 1.880344717307101 0  -3.738137326223278 1.749164834446819 0  -3.125 2.5 0  12.46235897590077 1.601301060091387 0  -11.09375 0 0  -11.61661448001209 0.7781698802173554 0  -15.625 2.5 0  -1.764022608759088 0.6027229563180789 0  1.59375 0 0  -8.125 2.5 0  8.125 2.5 0  8.713468311289519 1.727645658498745 0  9.375 2.5 0  -7.536531688710481 1.727645658498745 0  -6.875 2.5 0  14.375 2.5 0  17.78381794101733 1.874391370085592 0  18.59891476281433 1.80649740393129 0  -18.58835555265984 1.824268641341969 0  1.806126122135773 0.6510673837470153 0  -16.875 2.5 0  -16.36681393636619 1.755298393865037 0  -16.13072438662071 0.6014017614895231 0  -13.92460230791385 1.83195710210235 0  -14.40198779087891 0.6105385965811564 0  20 0.625 0  19.40625 0 0  14.6875 1.888836596385542 0  14.65625 0 0  12.78248197181444 0.6991460920542635 0  -3.467518028185561 0.6991460920542635 0  13.125 2.5 0  2.491957142932539 1.738660596534321 0  3.125 2.5 0  1.875 2.5 0  3.718973573227002 1.75927763286174 0  -2.491957142932539 1.738660596534321 0  -1.875 2.5 0  -9.375 2.5 0  6.2001972846108 1.772767401802766 0  5.625 2.5 0  5.027483518098582 1.760895488350309 0  5.625981449127788 0.6566963631252629 0  -12.30101114679273 1.859484693920165 0  9.742489932362783 1.884363450023167 0  -6.507510067637216 1.884363450023166 0  1.13492303295015 1.283502262067074
[...]
<PointData  Scalars="f_20286981"> 
<DataArray  type="Float64"  Name="f_20286981"  format="ascii">9.9987967004501233e-01  1.0001236853181930e+00  -1.3635119036870607e-04  -7.0388159471672295e-05  -2.0506954777720359e-05  -1.5002525394963628e-04  -8.5180464604318187e-05  -3.6218689112277805e-07  -2.9043674543554117e-05  -3.4335333339057809e-05  6.2382252623980488e-04  -3.4207116111957891e-05  -1.2779775495193427e-04  -5.4591051890565012e-05  -4.1563772380677240e-05  -2.4426426241698736e-05  -1.5164112579810607e-05  1.2382384180686390e-05  7.4894805147479245e-06  1.6765710423388350e-05  3.7078564466171701e-06  4.2249054749496630e-06  2.0890904938617349e-05  7.4472810334823225e-06  -4.5465062308454756e-06  1.0221233369608810e-05  -3.5150977925134007e-06  -2.1388630245474410e-05  -4.0124126917054642e-05  -3.3784588998141154e-05  2.8310009432023843e-06  2.4945235585612509e-06  -2.7630880347932791e-07  -1.2857381249545416e-05  -1.6964579572243444e-05  -3.9800820528289674e-05  -5.8582652512500401e-05  -5.6838203994071735e-06  -8.0526158487980936e-06  -6.0424275479995318e-05  -2.7201346559527602e-05  -1.0149344348869157e-05  -2.2977927200512109e-05  -5.4675244578638274e-05  -5.9117648172297373e-05  -6.2948269289811078e-06  2.9413460701157488e-03  -5.7046253700705730e-05  -2.7726726160045952e-05  -3.6139283748893042e-05  -9.0041253672408682e-05  -5.9801793450254127e-05  -2.2953596505590580e-05  -2.8614060460993726e-05  -6.0356625249652179e-05  -7.4802383167231728e-05  -1.1682174611310382e-04  -7.9840965394760655e-05  -8.6844794227341552e-05  -8.4587502097469689e-05  -7.0140069837548670e-05  -5.6195696732162259e-05  -9.2481673293246769e-05  -9.5350376212890146e-05  -4.8850133474677913e-05  -6.2137571766705953e-05  -4.9586174078359403e-05  -7.3044456292303218e-05  -1.9278405822391605e-04  -5.0003788799919373e-05  -5.1979896384650735e-05  -7.8333677759736460e-05  -1.1363173536217990e-04  -5.6314254529507249e-05  -5.5019295544907784e-05  -8.1428811551751779e-05  -8.1385470746027358e-05  -1.3028526625629413e-05  6.3091325130556937e-03  -2.0071493065550938e-05  -4.9767729097642530e-05  -2.3603009642043153e-05  -2.5510948378660026e-05  -4.1831067412880914e-05  -7.5615252904860845e-05  -5.2067299491551901e-05  -9.6835727146073799e-05  -4.0838199228372072e-05  -1.6079701588192764e-05  -4.4183069933772634e-05  -9.4802806642628945e-05  -1.9748394328549683e-05  -2.0505557370436925e-05  -4.4454939638756863e-05  -6.9293892806693500e-05  -1.5262742984702165e-05  -1.6525472370095440e-05  -4.9296733923616146e-05  -2.4337917544115865e-05  -2.5722470998518591e-05  -4.8797541568849289e-05  -8.8347604146177516e-05  -2.5579930495714588e-05  5.3056279767314099e-07  -4.2308001205208107e-06  3.2645926429374705e-06  1.6971625412353750e-06  -2.3027575627037758e-06  -2.6299630383191366e-05  -2.5565822169227312e-05  2.8256381951044301e-06  7.6967986944044001e-06  -9.5779040737498694e-05  2.1179709040603349e-05  2.2992249501379964e-05  -5.6917852717851886e-08  -2.4100309176660984e-05  1.0436464709984284e-05  2.4917103859974148e-05  -2.4714932239450487e-06  -9.8176057043332030e-05  -3.6190275538984713e-05  -2.5408078469054986e-05  -1.8164330173294285e-05  -3.3070670818275448e-06  -5.0099746828663096e-05  -1.0091753631644637e-04  -1.3417020875009490e-04  -3.7902807203964089e-05  -2.3395227855021010e-05  -2.3996720324958639e-05  9.9983194335608838e-01  1.0000008539599901e+00  1.0119321335626414e+00  9.9999974381476042e-01  9.9999990369303604e-01  9.9999121554738890e-01  1.0000358285473776e+00  1.0000178796822927e+00  9.9994866071307165e-01  9.9579772976265002e-01  9.9608720704959519e-01  9.9984934582810159e-01  9.9999448787315937e-01  9.9999588913128667e-01  1.0000002340223546e+00  9.9638990147384299e-01  1.0000839528528220e+00  9.9999711794718593e-01  1.0000473757751673e+00  1.0000008269849501e+00  1.0000070896542248e+00  9.9999994312962504e-01  9.9999459950761371e-01  1.0021942138252793e+00  1.0021410939966804e+00  9.9992320411225388e-01  1.0000015756925296e+00  9.9992388517460296e-01  9.9999424325436326e-01  8.7029521915337527e-01  8.7310757413297957e-01  1.0006984791813982e+00  1.0000669432225364e+00  1.0000033164634243e+00  9.9999366995723948e-01  9.9999996097242427e-01  9.9999498286397259e-01  9.9998250832668178e-01  1.0000239710674370e+00  9.9999992553171768e-01  9.9999938626601759e-01  9.9943973173264811e-01  9.9999592470487619e-01  9.9999987871086893e-01  9.9999046416251702e-01  9.9940275228331998e-01  9.9997278357708674e-01  9.9999921530897673e-01  1.0000001344553107e+00  9.9981400721215707e-01  9.7559131755365947e-01  9.7491821747837026e-01  1.0007785950304493e+00  9.9999990984748488e-01  1.0000024789126127e+00  9.9907696551399694e-01  9.9999993266582599e-01  9.9308118747862950e-01  9.9999766039437288e-01  1.0007236640293904e+00  1.0000059513795851e+00  1.0001102753467959e+00  1.0000095064545351e+00  1.0000079838650537e+00  5.0431210261887527e-01  4.9805697322111592e-01  1.0000045923225229e+00  1.0725504107214139e+00  1.0715817795941751e+00  1.0000041445214731e+00  1.0030459009181842e+00  9.9999979770085512e-01  1.0021062118420165e+00  1.0000035077268934e+00  1.0000184291313479e+00  1.0003103395192292e+00  1.0000023386633119e+00  1.0000500401762100e+00  1.0000328669092402e+00  1.0047282463613352e+00  1.0045078561389336e+00  1.0161920649104048e+00  9.9999990337602696e-01  1.0003880484690146e+00  1.2650972771110167e+00  1.2579603369751255e+00  1.0009159183279215e+00  1.0000205600680248e+00  9.9993790054024756e-01  9.9999909968192946e-01  1.0007686803713947e+00  1.0000044941540007e+00  1.0000083785184004e+00  9.9999984005915687e-01  9.9998756772928465e-01  9.9994102716697308e-01  2.0549873972602217e+00  2.0513487073278367e+00  9.9951765268739279e-01  9.9646983158515345e-01  1.0164119798805922e+00  9.9999337150812784e-01  1.0045994066226216e+00  1.0000974069843753e+00  9.9999822448008546e-01  9.9933481602575203e-01  9.8084089927828855e-01  9.9994666779245878e-01  9.9999947395221300e-01  1.0000035338999209e+00  1.0014730310758397e+00  9.9683108665923037e-01  1.0000163885279649e+00  1.0000046931122373e+00  1.0000026269121400e+00  9.9999861935666801e-01  9.9997832715076740e-01  1.0000114859764910e+00  9.0549579852230377e-01  1.0000056830481230e+00  1.0000054704976853e+00  7.2393906921266382e-01  9.0582561966531894e-01  1.0000053991383941e+00  1.0000057814560339e+00  9.9997675193574198e-01  1.0000781790307889e+00  1.0000074703748523e+00  9.9857253194678630e-01  9.9923493941344943e-01  1.0000004902770498e+00  9.9999441518935961e-01  9.9999699300978961e-01  9.9425517354335069e-01  9.9998564563533676e-01  1.0029546784686996e+00  1.0000118192564307e+00  9.9998990707882540e-01  1.0037505008190315e+00  1.0475464564353301e+00  9.9611829886055026e-01  1.0000020024456733e+00  9.9998580875871745e-01  9.9999433790118408e-01  1.0000064491591834e+00  6.0849326661006253e-01  2.0887006893869237e-01  9.9999736838831077e-01  9.9999862700509312e-01  1.0000340494899125e+00  1.0000003860016424e+00  1.0001086857603927e+00  9.9999443021268342e-01  1.0000001631897426e+00  9.9997765131786354e-01  1.0000294603336188e+00  1.0063488832887983e+00  6.6355228528887167e-01  1.0000379468254461e+00  1.0005425321591408e+00  9.9966866089014761e-01  9.9999778724503219e-01  9.9999032074969818e-01  9.9990391448995897e-01  9.9986480978934089e-01  1.0000081857676786e+00  9.9999765829164344e-01  1.0000053969890763e+00  9.6071682187186824e-01  1.0000000989645896e+00  1.2227015208206948e+00  1.0047482073399987e+00  1.0070349448816169e+00  1.0480323462808392e+00  1.2225672959552563e+00  1.0235832663975974e+00  9.9999981341381605e-01  1.0010800399270330e+00  9.9978283704731041e-01  1.0074700428859218e+00  9.9809474797710662e-01  1.0000079390653716e+00  1.0000168043398472e+00  1.0006018900278715e+00  1.3587679242918820e+00  1.3872118567110503e+00  1.0000154621488608e+00  9.9184453272407258e-01  1.0000122423301547e+00  9.9837229109219572e-01  9.9999720830504135e-01  9.2239164250401140e-01  1.0000025897262139e+00  1.0000099774661531e+00  9.9998157995387704e-01  9.9997385858686005e-01  1.0001173228725457e+00  1.5394190745288818e+00  1.5359653852392856e+00  1.0000089944906609e+00  1.0000132011979992e+00  9.4028308487645285e-01  1.0000026696882631e+00  9.9999716344230438e-01  1.0000211636525000e+00  1.0005891686058028e+00  9.9999989438870451e-01  9.9526773101185051e-01  9.9583259052052919e-01  1.0002597623798772e+00  9.9999992253375780e-01  9.9997914583787861e-01  9.9923508592214250e-01  2.2170947476326828e+00  1.0000000699266609e+00  9.9999705560150098e-01  1.0000003462499685e+00  1.0021662784182155e+00  9.9999982779903540e-01  9.9920107685722848e-01  1.0138561725107851e+00  1.0082685274225405e+00  1.0000001247788199e+00  9.9922556699283283e-01  1.0001255545103485e+00  1.0000015141587950e+00  9.9999979997965383e-01  9.9995798735300023e-01  1.0002151375625326e+00  9.9999184727562618e-01  1.0000243922110870e+00  9.8945238266645785e-01  1.0000304921204732e+00  1.0000008991960314e+00  1.0000169620346293e+00  1.0000140971181992e+00  1.0000386414388938e+00  9.9999312799260676e-01  9.9973134758845461e-01  9.9998596487258873e-01  1.9509114421150309e-01  9.9995487178661469e-01  1.0000020749406837e+00  9.8977680025477577e-01  9.9997448273175904e-01  9.9979282599868891e-01  9.3997543277620732e-01  9.9843579044625719e-01  9.9999410228620567e-01  9.9844330044089058e-01  9.9978846222160722e-01  9.9995633570114428e-01  9.9806460639672234e-01  9.9960517125322168e-01  7.3249765228506869e-01  1.0000426744583486e+00  1.0923163578113322e+00  1.0000038987137287e+00  1.0914989773735320e+00  1.0025694453999450e+00  1.0001709338262161e+00  9.9998458840353777e-01  9.8294264659519237e-01  9.9982645628407429e-01  1.0011592951507264e+00  9.9966316625920792e-01  1.0000073871396848e+00  1.0133950685319022e+00  9.9999149805622434e-01  1.0000029025448529e+00  1.0000015054391480e+00  1.0000044355285078e+00  1.0012954163750287e+00  1.0000010023172450e+00  1.0000010893770463e+00  1.0002382221533688e+00  1.0007638041009830e+00  1.0074627434683958e+00  1.0000002024214478e+00  1.0282407417632009e+00  1.0006713011796717e+00  9.9999577134862994e-01  1.0000743520387683e+00  1.0000249721594399e+00  1.0002470366735552e+00  1.0000276501672967e+00  1.0000004028363099e+00  9.9610621634494301e-01  1.0000963540078627e+00  9.9990675885935676e-01  9.7091928014747764e-01  1.0000145746994107e+00  1.0000064977340957e+00  1.0000094290036530e+00  1.0260929857694130e+00  8.6474753559151618e-01  1.0043497015226241e+00  1.0000114668283813e+00  1.0000663657657272e+00  1.0000053484600469e+00  1.0208709312041215e+00  1.0009608624295157e+00  1.2372120245325546e+00  1.2997335425479426e+00  1.0000025700363724e+00  1.0000261742753003e+00  1.0000061079780211e+00  1.0000531882360075e+00  1.0000044089894875e+00  1.0000056536905315e+00  1.0000048244211410e+00  1.0000807990078986e+00  1.0000067407371753e+00  5.7781483880941653e-01  1.0000032787147590e+00  1.1063161226955465e+00  1.1500367799676532e+00  9.9391945325777997e-01  9.9812651340078928e-01  9.9713530224453473e-01  9.9768333344107774e-01  9.9998864879210159e-01  6.3146132655090059e-01  1.7328753016984515e+00  1.7346649499499127e+00  1.8415247010366025e+00  1.8353101895667165e+00  9.9999999149434904e-01  9.9994993506388685e-01  1.0000018777279505e+00  1.0191537626262037e+00  9.9998893828500113e-01  1.0000017730569677e+00  9.9999830768817577e-01  1.0000376858276745e+00  1.0000059874290408e+00  1.0000221469736588e+00  9.9372237382665807e-01  1.0000673513025025e+00  1.0000057184630333e+00  1.0070403618273154e+00  9.9998884176577485e-01  1.0000081421637279e+00  9.9995620724034384e-01  9.9990650993344499e-01  9.9940054819908397e-01  1.0002936204664077e+00  9.9998577520432441e-01  1.0048957072842144e+00  9.9802026098031793e-01  1.0002848555370085e+00  9.9998581856375335e-01  1.0087932530323620e+00  9.9997202230950821e-01  1.1031874835147948e+00  9.9999100561546073e-01  1.0089309168848937e+00  9.9999877427571482e-01  1.0211904039908031e+00  1.0000084346387783e+00  9.9998928452530478e-01  1.0000017646635899e+00  1.0000423787629118e+00  1.0000011047355426e+00  1.0000089412026769e+00  1.8955323941720315e+00  1.8596876717591386e+00  9.9993512190886880e-01  1.0000020537533996e+00  1.0000049111999705e+00  1.0002207243495462e+00  1.0005322409331507e+00  1.0013487514530544e+00  1.0000137281509438e+00  9.9964258654154625e-01  1.0009466369458144e+00  1.0000859919963609e+00  9.9997916226998851e-01  1.0000499660913031e+00  9.9999788743832441e-01  9.5924760768553863e-01  1.0004539442476215e+00  9.9973087743889055e-01  1.0000878869708081e+00  9.9999563678927017e-01  1.0000023535073057e+00  1.0000086359260298e+00  9.9780020834759575e-01  1.0160419929452911e+00  9.2975742893522539e-01  1.0002435790192901e+00  1.0018421917867877e+00  9.8601037926761326e-01  1.0000029951613805e+00  2.3372192654285850e-01  9.9753939721650287e-01  1.0000090138471869e+00  9.2506995893866883e-01  1.3468323937856479e+00  9.9997888146780933e-01  1.0005053865804365e+00  1.0000007953833066e+00  9.9999949696303703e-01  9.9998542786320899e-01  1.0000027500998656e+00  1.0000308115735701e+00  1.0000091868354626e+00  1.0000096547589601e+00  1.0016421987118360e+00  1.0000191466930779e+00  1.0000031123951862e+00  1.0000048851423862e+00  1.3630110265073090e+00  9.9998428732715183e-01  9.9919149507187766e-01  1.0000027194690069e+00  1.0000019640349289e+00  1.0000019445294028e+00  9.9999804391179803e-01  1.0002966870276546e+00  9.9989455948005801e-01  7.2950822009193361e-01  7.0136811716079950e-01  9.9974078279600764e-01  9.9997055112871180e-01  9.9999895837329356e-01  9.9999063969591484e-01  1.0001324503386999e+00  9.9999908792590875e-01  9.9819598801602161e-01  9.8672296054915776e-01  1.0031688049421918e+00  1.0000053414303534e+00  1.6627652826925077e+00  1.0424278196441505e+00  1.1371169560972971e+00  1.0000028537585315e+00  1.0000035794885662e+00  9.9999416453006928e-01  6.1484698875266097e-01  1.0051389325303810e+00  1.0000215039960958e+00  1.0000782477039614e+00  1.0000582296658822e+00  1.0019066750250027e+00  1.0000100664951435e+00  1.0000111281792867e+00  1.0000266246783664e+00  1.0000031850913222e+00  1.0000069375116163e+00  9.9997914290712420e-01  1.0000335032189580e+00  2.0361814889009414e-01  1.0000036192369859e+00  9.9369536348440424e-01  1.0000025225138562e+00  9.9006017380216005e-01  1.0000536314279012e+00  9.9999203757753996e-01  1.0000002634910004e+00  1.0000286415021094e+00  9.8334687848683078e-01  1.0014647522507463e+00  1.0000944929018618e+00  1.0000414116554717e+00  1.0000864895988264e+00  1.0002202753730414e+00  1.0000046753700369e+00  1.0000099920482359e+00  9.9999799335557804e-01  1.0468013360693373e+00  1.0000089041364653e+00  1.0264273571546270e+00  1.0000134998062153e+00  1.0000233176942419e+00  1.1008881532748298e+00  1.4935898157599019e+00  9.7134650544287782e-01  1.1104375630219350e+00  1.2122102260865464e+00  1.0005386534645162e+00  9.9984563961315587e-01  1.0001228318520223e+00  1.0005201319060331e+00  9.9999854568758562e-01  9.9999463398943766e-01  1.0000009181810814e+00  1.0000089815627506e+00  1.0000452609149655e+00  9.9999710041769074e-01  1.0000058470833184e+00  1.0007289552622070e+00  1.0001907368033962e+00  1.0000416895658297e+00  1.0033477789694958e+00  1.0038339169674799e+00  1.1397035958764443e+00  1.5244326027684567e+00  1.0000871280585999e+00  9.9865862315592724e-01  9.9922093627370001e-01  9.9892065278130926e-01  1.0000787242358882e+00  1.0000021972289359e+00  1.0000033079796620e+00  1.1377386231795386e+00  1.0083737262704606e+00  9.9904096723475744e-01  9.9908655169176031e-01  1.0000060797320156e+00  5.8647863579271664e-01  9.9999392076254667e-01  1.0018260870740678e+00  1.0003164838305065e+00  1.0008630112157184e+00  1.8097080651909867e+00  1.0000081565960353e+00  1.0641011774795193e+00  1.0000036765953604e+00  1.0061050718898201e+00  9.6283806011982698e-01  1.0000331264610178e+00  9.9347054578777261e-01  1.0000255336667836e+00  1.0028015827972927e+00  1.0571242984576581e+00  1.0043000344152291e+00  9.9811985144804494e-01  1.0000272944241964e+00  9.9999611915538567e-01  9.9998782838534606e-01  9.9999988647884230e-01  1.0024583918297343e+00  1.0000025442118854e+00  9.9999487338547566e-01  1.0091568513208788e+00  1.1453757525292136e+00  1.0000064599344194e+00  1.0000126921773014e+00  1.8017312404670962e+00  1.0002058481208391e+00  1.0000845265130385e+00  1.0015092730968802e+00  1.0278542137061388e+00  7.7798044673945310e-01  1.4073806529073190e+00  8.1348712497455944e-01  7.3927489303008076e-01  1.0000038496251293e+00  9.9999567375186960e-01  1.0000000583120481e+00  1.0000215386968294e+00  9.9544036991771379e-01  1.0000037411144549e+00  1.0002199287668321e+00  1.0000000795787174e+00  1.0000184194441399e+00  9.9999374364019133e-01  1.0000016264734515e+00  9.9989177405152974e-01  9.9999928021786444e-01  1.0000080461016123e+00  9.6070480045773021e-01  9.9999993614584959e-01  1.0000644720754199e+00  1.0026074927796325e+00  9.9858134709231927e-01  1.0000153936609901e+00  1.0000055167787827e+00  8.8717451110872980e-01  1.0079201656219561e+00  1.0000043689780431e+00  9.9990634122564392e-01  1.0000913854964628e+00  9.9999355905014597e-01  9.9998131150883884e-01  9.9999529955241617e-01  1.0000109810698925e+00  9.9891097323915901e-01  9.9999994214530163e-01  1.0000355109004921e+00  1.0029891986421591e+00  1.0065562678058937e+00  9.9999914357769193e-01  1.0000022559982815e+00  9.9361594254094077e-01  1.0000034021108342e+00  9.9999540210692961e-01  9.9999665830596174e-01  9.9999829483754421e-01  9.9997523724278858e-01  1.0000097426035965e+00  1.0000043602863184e+00  1.0000062485158054e+00  3.4535276356897709e-01  3.8239916453714540e-01  1.0000069911624154e+00  9.9999995036911049e-01  1.0000033281861578e+00  1.0000084815857728e+00  9.9998246889177334e-01  1.0000034319344344e+00  1.8028538509703691e+00  1.0210431774324842e+00  1.7875219467784833e+00  1.0001261838448479e+00  1.0000068035095782e+00  1.0006593573336586e+00  1.0000099945640355e+00  9.9147001008300983e-01  1.0000216596852876e+00  9.7979140911224105e-01  9.9559991535222847e-01  9.9462942764064888e-01  1.0000036860139283e+00  9.9968113712317541e-01  9.9940235616557560e-01  9.4757348930543495e-01  8.6465077492824005e-01  9.9999979590531529e-01  1.0000058227366000e+00  9.9983753910236917e-01  1.0129626747235727e+00  9.9663675434713106e-01  1.0000008742797022e+00  1.0000100261390876e+00  1.0009291544717114e+00  1.0004742969816482e+00  1.0000097265142445e+00  1.0003684568117446e+00  1.0000222004900909e+00  1.0000185322447215e+00  1.0000105457519302e+00  1.0000065421047157e+00  1.0000035062503561e+00  9.9965565569805037e-01  9.9999938550570422e-01  9.9999791362549340e-01  9.9999993181367652e-01  9.9888053721611425e-01  9.9997420774653922e-01  1.0219159226689181e+00  1.0019222813628330e+00  9.9999416872916491e-01  1.0000354440897017e+00  9.9994566452298594e-01  9.9993584587043693e-01  1.0000002239977153e+00  1.0065779828216863e+00  9.9946748094602189e-01  1.3773858465428968e+00  1.4545217037685918e+00  1.4583907868737238e+00  1.3152161943002814e+00  1.0000492397448859e+00  1.0000003612225223e+00  9.9989262359152309e-01  1.0000054202943978e+00  9.9999324103719700e-01  9.9999731044563356e-01  1.0065740261786829e+00  9.9998863313401321e-01  9.9461740802450005e-01  1.0000080834977485e+00  9.9352366462841402e-01  1.0000013409706023e+00  9.9904253736024329e-01  1.0002537980851329e+00  9.9999813296776896e-01  1.1649677395629678e+00  9.9998969150694828e-01  1.7004147136703627e+00  1.4552546485173761e+00  1.0000132492210094e+00  9.9999695202866701e-01  9.9855979293066321e-01  1.0000245804453807e+00  9.8798856629147247e-01  1.0000040234820908e+00  8.0353435389942163e-01  1.0009185075438567e+00  1.0000051361680151e+00  1.0000047332027970e+00  9.9999756952559316e-01  9.9999129613718019e-01  2.1783432683118158e+00  1.8876981115607150e+00  2.1798637106294536e+00  1.1780317454185298e+00  1.0000312618783944e+00  1.0000044757400837e+00  9.9999616517057310e-01  3.4696701336814034e-01  9.9997979549631222e-