<?xml version="1.0"?>
<VTKFile type="UnstructuredGrid"  version="0.1"  >
<UnstructuredGrid>
<Piece  NumberOfPoints="2937" NumberOfCells="5112">
<Points>
<DataArray  type="Float64"  NumberOfComponents="3"  format="ascii">-20 2.5 0  -20 0 0  -1 0 0  -0.9996988186962042 0.02454122852291233 0  -0.9987954562051724 0.04906767432741797 0  -0.9972904566786902 0.07356456359966773 0  -0.9951847266721968 0.09801714032956083 0  -0.99247953459871 0.1224106751992163 0  -0.989176509964781 0.1467304744553618 0  -0.9852776423889412 0.1709618887603012 0  -0.9807852804032304 0.1950903220161286 0  -0.9757021300385285 0.21910124015687 0  -0.970031253194544 0.2429801799032641 0  -0.9637760657954398 0.2667127574748985 0  -0.9569403357322088 0.2902846772544624 0  -0.9495281805930367 0.3136817403988914 0  -0.9415440651830207 0.3368898533922203 0  -0.9329927988347388 0.3598950365349883 0  -0.9238795325112867 0.3826834323650899 0  -0.9142097557035307 0.4052413140049899 0  -0.9039892931234433 0.427555093430282 0  -0.8932243011955152 0.4496113296546069 0  -0.8819212643483549 0.4713967368259979 0  -0.8700869911087113 0.4928981922297841 0  -0.857728610000272 0.5141027441932218 0  -0.8448535652497071 0.5349976198870972 0  -0.8314696123025453 0.5555702330196022 0  -0.8175848131515836 0.5758081914178454 0  -0.8032075314806448 0.5956993044924335 0  -0.7883464276266062 0.6152315905806269 0  -0.773010453362737 0.6343932841636455 0  -0.7572088465064846 0.6531728429537766 0  -0.7409511253549589 0.6715589548470186 0  -0.7242470829514668 0.6895405447370671 0  -0.7071067811865475 0.7071067811865476 0  -0.6895405447370669 0.7242470829514669 0  -0.6715589548470184 0.740951125354959 0  -0.6531728429537765 0.7572088465064847 0  -0.6343932841636454 0.7730104533627371 0  -0.6152315905806267 0.7883464276266063 0  -0.5956993044924334 0.8032075314806449 0  -0.5758081914178453 0.8175848131515837 0  -0.555570233019602 0.8314696123025455 0  -0.534997619887097 0.8448535652497072 0  -0.5141027441932217 0.8577286100002721 0  -0.492898192229784 0.8700869911087115 0  -0.4713967368259977 0.881921264348355 0  -0.4496113296546067 0.8932243011955152 0  -0.4275550934302819 0.9039892931234434 0  -0.4052413140049897 0.9142097557035307 0  -0.3826834323650897 0.9238795325112867 0  -0.3598950365349882 0.9329927988347388 0  -0.3368898533922199 0.9415440651830208 0  -0.3136817403988914 0.9495281805930367 0  -0.2902846772544622 0.9569403357322089 0  -0.2667127574748983 0.9637760657954398 0  -0.2429801799032639 0.970031253194544 0  -0.2191012401568697 0.9757021300385286 0  -0.1950903220161282 0.9807852804032304 0  -0.1709618887603012 0.9852776423889412 0  -0.1467304744553616 0.989176509964781 0  -0.1224106751992162 0.99247953459871 0  -0.09801714032956065 0.9951847266721969 0  -0.07356456359966733 0.9972904566786902 0  -0.04906767432741801 0.9987954562051724 0  -0.02454122852291214 0.9996988186962042 0  6.123233995736766e-17 1 0  0.02454122852291226 0.9996988186962042 0  0.04906767432741813 0.9987954562051724 0  0.07356456359966745 0.9972904566786902 0  0.09801714032956077 0.9951847266721968 0  0.1224106751992163 0.99247953459871 0  0.1467304744553617 0.989176509964781 0  0.1709618887603014 0.9852776423889412 0  0.1950903220161283 0.9807852804032304 0  0.2191012401568698 0.9757021300385286 0  0.242980179903264 0.970031253194544 0  0.2667127574748984 0.9637760657954398 0  0.2902846772544623 0.9569403357322089 0  0.3136817403988916 0.9495281805930367 0  0.3368898533922201 0.9415440651830208 0  0.3598950365349883 0.9329927988347388 0  0.3826834323650898 0.9238795325112867 0  0.4052413140049899 0.9142097557035307 0  0.4275550934302822 0.9039892931234433 0  0.4496113296546066 0.8932243011955153 0  0.4713967368259978 0.8819212643483549 0  0.4928981922297841 0.8700869911087113 0  0.5141027441932217 0.8577286100002721 0  0.5349976198870973 0.844853565249707 0  0.5555702330196023 0.8314696123025452 0  0.5758081914178453 0.8175848131515837 0  0.5956993044924335 0.8032075314806448 0  0.6152315905806268 0.7883464276266062 0  0.6343932841636455 0.773010453362737 0  0.6531728429537768 0.7572088465064845 0  0.6715589548470183 0.7409511253549591 0  0.6895405447370669 0.7242470829514669 0  0.7071067811865476 0.7071067811865475 0  0.724247082951467 0.6895405447370668 0  0.7409511253549591 0.6715589548470183 0  0.7572088465064846 0.6531728429537768 0  0.773010453362737 0.6343932841636455 0  0.7883464276266063 0.6152315905806268 0  0.8032075314806449 0.5956993044924334 0  0.8175848131515837 0.5758081914178453 0  0.8314696123025452 0.5555702330196022 0  0.8448535652497071 0.5349976198870972 0  0.8577286100002721 0.5141027441932217 0  0.8700869911087115 0.492898192229784 0  0.881921264348355 0.4713967368259976 0  0.8932243011955153 0.4496113296546065 0  0.9039892931234433 0.4275550934302821 0  0.9142097557035307 0.4052413140049899 0  0.9238795325112867 0.3826834323650898 0  0.932992798834739 0.3598950365349881 0  0.9415440651830208 0.3368898533922201 0  0.9495281805930367 0.3136817403988915 0  0.9569403357322088 0.2902846772544623 0  0.9637760657954398 0.2667127574748984 0  0.970031253194544 0.2429801799032639 0  0.9757021300385286 0.2191012401568698 0  0.9807852804032304 0.1950903220161282 0  0.9852776423889412 0.1709618887603012 0  0.989176509964781 0.1467304744553617 0  0.99247953459871 0.1224106751992162 0  0.9951847266721969 0.0980171403295606 0  0.9972904566786902 0.07356456359966743 0  0.9987954562051724 0.04906767432741801 0  0.9996988186962042 0.02454122852291229 0  1 0 0  20 0 0  20 2.5 0  0 2.5 0  -10 2.5 0  10 2.5 0  -10.5 0 0  -5 2.5 0  10.5 0 0  5 2.5 0  -5.75 0 0  5.75 0 0  -15.25 0 0  -15 2.5 0  15.25 0 0  15 2.5 0  -17.625 0 0  -17.5 2.5 0  17.5 2.5 0  17.625 0 0  12.5 2.5 0  12.875 0 0  -12.5 2.5 0  -12.875 0 0  -2.5 2.5 0  2.5 2.5 0  -8.125 0 0  -7.5 2.5 0  8.125 0 0  7.5 2.5 0  -3.375 0 0  3.375 0 0  -18.75 2.5 0  20 1.25 0  16.4375 1.19375 0  -16.25 2.5 0  13.75 2.5 0  -14.0625 0 0  -11.6875 0 0  11.6875 0 0  8.75 2.5 0  -8.75 2.5 0  6.9375 0 0  6.25 2.5 0  -6.25 2.5 0  -9.3125 0 0  -6.9375 0 0  9.3125 0 0  11.25 2.5 0  -11.25 2.5 0  3.75 2.5 0  4.5625 0 0  -4.5625 0 0  -3.75 2.5 0  -13.75 2.5 0  14.0625 0 0  -16.4375 0 0  -20 1.25 0  -18.8125 0 0  18.75 2.5 0  -18.21875 1.2359375 0  18.125 1.278125 0  -15.84375 1.2125 0  -14.375 1.30859375 0  14.65625 1.203125 0  2.1875 0 0  -2.1875 0 0  13.125 1.315625 0  3.125 1.315625 0  -3.125 1.315625 0  -12.28125 1.1890625 0  -5.15625 1.184375 0  11.09375 1.184375 0  5.625 1.325 0  -10.97262068800044 1.220713793599868 0  9.375 1.32734375 0  -6.875 1.32734375 0  -9.67626828410207 1.24449497187193 0  8.061334925608099 1.312208731402025 0  -8.188665074391901 1.312208731402025 0  -1.25 2.5 0  1.25 2.5 0  4.37465139623265 1.41327350462657 0  16.25 2.5 0  6.84375467392576 1.430449641528851 0  -1.846573640185365 1.334702047669377 0  1.846573640185365 1.334702047669377 0  -17.02955351149946 1.396129584721571 0  16.4375 0 0  18.8125 0 0  -13.31314667860176 1.511193493282891 0  -4.122005747945582 0.961844908681634 0  12.12799425205442 0.961844908681634 0  15.54930641305724 1.660405980876393 0  19.0578783583929 0.9559530595267438 0  8.71875 0.6864560603786576 0  -7.53125 0.6864560603786576 0  -0.6257799091428727 1.819008129832856 0  0.6257799091428734 1.819008129832855 0  6.291331569065717 0.7194652423646902 0  -19.11204717950418 0.9044926794710327 0  -4.488713231834613 1.772186102355655 0  11.76128676816539 1.772186102355655 0  -19.28185607205105 1.781856072051052 0  19.30868080343342 1.808680803433421 0  9.90625 0.6371857066656857 0  -6.34375 0.6371857066656857 0  3.796921710049233 0.7617406159238448 0  7.392020585015773 0.7480839107774819 0  -8.910372062800235 0.7929553447587234 0  10.2506781820361 1.451853913138859 0  -5.999321817963904 1.451853913138859 0  4.957643119381741 0.7716423099297361 0  17.29984375 0.8640625 0  15.41193625859067 0.8279888354083842 0  -13.72251704931534 0.7728002662082776 0  16.875 2.5 0  17.12178336313261 1.690954734835967 0  -11.64001625260176 1.74572103154608 0  2.477726735235857 0.7850262278604345 0  13.46875 0 0  13.765625 0.7802887470308788 0  -2.78125 0 0  -2.477726735235857 0.7850262278604346 0  -10.33383379274331 1.744431431923121 0  13.91957519050334 1.653419259628842 0  -15.08147780274903 0.8341506893754731 0  -15.14066649024666 1.671962869821843 0  -8.950686484882164 1.678622661163363 0  -17.55392917606836 0.794731598412167 0  -16.80247533599675 0.6688259240674158 0  -12.94289066923278 0.7766744225472476 0  -9.90625 0 0  -10.31601468672093 0.7730817089126454 0  -18.21875 0 0  -12.28125 0 0  -17.68515668569534 1.768907656575843 0  18.21875 0 0  10.85059123027421 1.880344717307101 0  -5.399408769725794 1.880344717307101 0  -3.738137326223278 1.749164834446819 0  -3.125 2.5 0  12.46235897590077 1.601301060091387 0  -11.09375 0 0  -11.61661448001209 0.7781698802173554 0  -15.625 2.5 0  -1.764022608759088 0.6027229563180789 0  1.59375 0 0  -8.125 2.5 0  8.125 2.5 0  8.713468311289519 1.727645658498745 0  9.375 2.5 0  -7.536531688710481 1.727645658498745 0  -6.875 2.5 0  14.375 2.5 0  17.78381794101733 1.874391370085592 0  18.59891476281433 1.80649740393129 0  -18.58835555265984 1.824268641341969 0  1.806126122135773 0.6510673837470153 0  -16.875 2.5 0  -16.36681393636619 1.755298393865037 0  -16.13072438662071 0.6014017614895231 0  -13.92460230791385 1.83195710210235 0  -14.40198779087891 0.6105385965811564 0  20 0.625 0  19.40625 0 0  14.6875 1.888836596385542 0  14.65625 0 0  12.78248197181444 0.6991460920542635 0  -3.467518028185561 0.6991460920542635 0  13.125 2.5 0  2.491957142932539 1.738660596534321 0  3.125 2.5 0  1.875 2.5 0  3.718973573227002 1.75927763286174 0  -2.491957142932539 1.738660596534321 0  -1.875 2.5 0  -9.375 2.5 0  6.2001972846108 1.772767401802766 0  5.625 2.5 0  5.027483518098582 1.760895488350309 0  5.625981449127788 0.6566963631252629 0  -12.30101114679273 1.859484693920165 0  9.742489932362783 1.884363450023167 0  -6.507510067637216 1.884363450023166 0  1.13492303295015 1.283502262067074
[...]
<PointData  Scalars="f_4834"> 
<DataArray  type="Float64"  Name="f_4834"  format="ascii">7.7796052122958026e-01  7.7798621053445360e-01  4.5076429434194742e-01  4.5074495041286744e-01  4.5068885594448904e-01  4.5061229434544775e-01  4.5049484483504931e-01  4.5033493005172909e-01  4.5016017190092861e-01  4.4991188761536810e-01  4.4896686629128663e-01  4.4956786929801840e-01  4.4909738504871216e-01  4.4873492336387666e-01  4.4834575665115084e-01  4.4791620789091252e-01  4.4746372880919505e-01  4.4697895401880156e-01  4.4646165355033363e-01  4.4591690086453134e-01  4.4532587133762480e-01  4.4470800233772473e-01  4.4406476948212054e-01  4.4338491740196651e-01  4.4267069685116017e-01  4.4193189638127645e-01  4.4115367782406123e-01  4.4034800185046336e-01  4.3951649950598881e-01  4.3864538614558818e-01  4.3775011540927977e-01  4.3682173554341991e-01  4.3585788200077291e-01  4.3487176658516929e-01  4.3385440839033934e-01  4.3279776737689046e-01  4.3173863038768839e-01  4.3063648576741304e-01  4.2949768566360830e-01  4.2833655058407638e-01  4.2716328774857321e-01  4.2595185045700595e-01  4.2470757702874995e-01  4.2344577690009899e-01  4.2215460616497708e-01  4.2066602101625888e-01  4.2021502830397028e-01  4.1826688792367112e-01  4.1676821397301861e-01  4.1534423764876299e-01  4.1392541218074713e-01  4.1249115614382431e-01  4.1102881679808168e-01  4.0953554965854450e-01  4.0803997189378571e-01  4.0652411360162921e-01  4.0499536674786352e-01  4.0345090715020260e-01  4.0189778792342234e-01  4.0033564718728831e-01  3.9877106688662733e-01  3.9717639155843698e-01  3.9558176957500818e-01  3.9398576280578518e-01  3.9239110801945309e-01  3.9077486755311031e-01  3.8918373962078218e-01  3.8758176270298927e-01  3.8597881651389476e-01  3.8439098640893077e-01  3.8278201207521145e-01  3.8118309043036169e-01  3.7961373874272297e-01  3.7803345119442544e-01  3.7647114308238278e-01  3.7490931233768632e-01  3.7336254302443322e-01  3.7170504266687643e-01  3.7030360315760069e-01  3.6899124640108799e-01  3.6736548410774533e-01  3.6589475714064973e-01  3.6444944167750454e-01  3.6301449312227801e-01  3.6161497000443138e-01  3.6023274301339303e-01  3.5887845382436884e-01  3.5755057421654707e-01  3.5622422852503932e-01  3.5492497235529136e-01  3.5366978691113382e-01  3.5242610556163945e-01  3.5121395235046493e-01  3.5002824462708082e-01  3.4886752872606824e-01  3.4773261884550904e-01  3.4662870392595335e-01  3.4554462891818849e-01  3.4450055682617653e-01  3.4348299805437121e-01  3.4248744634157308e-01  3.4153585590424163e-01  3.4060459554952544e-01  3.3970568353126868e-01  3.3883776085480566e-01  3.3799594723375465e-01  3.3718720383551465e-01  3.3641025281860776e-01  3.3567169553497261e-01  3.3496816637999743e-01  3.3427839546875959e-01  3.3362295304506406e-01  3.3300969887792942e-01  3.3242474495683183e-01  3.3180164298384152e-01  3.3117202539094059e-01  3.3092404921727614e-01  3.3042349415537403e-01  3.2999250839009825e-01  3.2961450812036280e-01  3.2925020789729081e-01  3.2893346774266641e-01  3.2865041780237253e-01  3.2840033119026940e-01  3.2819027704067688e-01  3.2799689676794302e-01  3.2784607357425416e-01  3.2772484409095043e-01  3.2764580279917238e-01  3.2759722156170218e-01  3.2757759334621411e-01  0.0000000000000000e+00  0.0000000000000000e+00  3.8915271945980517e-01  5.9687189844600985e-01  1.8130510398755628e-01  6.0592803942790197e-01  5.0626600910043029e-01  1.7223968174097004e-01  2.7200265447856142e-01  5.1991283587440185e-01  2.5834256098946479e-01  6.9196025372999981e-01  6.8743215496722210e-01  8.6119863402633320e-02  9.0652567500069114e-02  7.3497642543893238e-01  7.3271225129855444e-01  4.5326444260936037e-02  4.3059896259408793e-02  1.3597866796171523e-01  1.2917983300887018e-01  6.4215221176220350e-01  6.4894414350097285e-01  4.5950663540345227e-01  3.1873850065751824e-01  5.6291252934635461e-01  5.5159037745565598e-01  2.1529882110690998e-01  2.2663240065162990e-01  4.7734913887037078e-01  3.0094713622581210e-01  7.5535229545264615e-01  0.0000000000000000e+00  6.4589844415421538e-02  7.1007221000454057e-01  1.1331589862576422e-01  6.7045218545976581e-01  6.2743607972533710e-01  1.5070978612188801e-01  2.0396825044955966e-01  5.7423188123600644e-01  2.3682625255854112e-01  2.4930196821886214e-01  5.2894405665760069e-01  5.8442007868419577e-01  5.4140706348670553e-01  1.9376949849571898e-01  1.5864144972044406e-01  6.1951220959146791e-01  2.9489099097512317e-01  2.7980012293486678e-01  4.9847610741019177e-01  4.8340799928285222e-01  6.6479217998046269e-01  1.0764984838260601e-01  7.1346832302362395e-01  7.7798741916197522e-01  7.5648457455911045e-01  2.2663261585664625e-02  7.4573044414389167e-01  3.3994657909357552e-02  7.0271428958838023e-01  6.7611221167649782e-01  9.6884849159311892e-02  3.2034117683562185e-01  4.5797151845752415e-01  1.2464721421122747e-01  3.0614713088379453e-01  4.7216897118114587e-01  6.3819010628103856e-01  5.0913869547397173e-01  1.6147473107665736e-01  2.6063118716532396e-01  6.1448814592239709e-01  1.9263648938018801e-01  5.4027083296624523e-01  5.9100854138363845e-01  2.1645391841777661e-01  5.6406487490449786e-01  4.3071651565028490e-01  3.4762135897676050e-01  2.8334257282945907e-01  6.7989305180190682e-02  2.3853064225135534e-01  4.4787867019960736e-01  3.3050264581736005e-01  7.2419163858115687e-01  6.4589852983109611e-02  2.1529956857327177e-02  6.5687987654965230e-01  4.9044631621993695e-01  1.4272341647964823e-01  8.0693279456326580e-02  1.7081114569637096e-02  2.0453438634540552e-01  5.5215869004155571e-01  4.1238161579143828e-01  3.6597067721024157e-01  2.4854051693291848e-01  7.6190999697666006e-01  4.9697367278590743e-01  1.4937197456910425e-01  7.6498534648160776e-01  1.2533975007971185e-02  1.8300463276889359e-01  5.3065439405468828e-01  2.9364434234289694e-01  2.2858787911663359e-01  5.7713669731075201e-01  1.7676002839877966e-01  5.2440635386143408e-01  2.7270193481863453e-01  4.8955135077557888e-02  8.3183866205732426e-02  6.6429440918403404e-01  5.6657621254139971e-02  5.2183435865726817e-02  6.2657604411115597e-01  3.1696162932251215e-01  1.1841484335932552e-01  1.1303234784321935e-01  4.6725796994407509e-01  4.6135382773776923e-01  6.0291839101729472e-01  1.1024115010835263e-01  6.8890796517748631e-01  6.8997999565134382e-01  5.7786666133574061e-01  7.3368917101496323e-01  7.2007878982498530e-01  6.5017378059385400e-01  5.9517404051971923e-01  6.0259568062287805e-01  7.4573051763993847e-01  6.3819011041565743e-01  7.3606594599313790e-01  3.2294903456741721e-02  1.6588327231867606e-01  5.1352236833672582e-01  4.8323666997672543e-01  4.7171759854406914e-01  1.3666121246470397e-01  6.1668205005316834e-01  6.2615219610973027e-01  6.9875228195196226e-01  4.5058877498673833e-01  3.2739604638522429e-01  5.6291119734697193e-01  2.1530017871782184e-01  2.0463050405448566e-01  1.9263662340572402e-01  5.5225253091059523e-01  5.4026867593777583e-01  1.0198429224162450e-01  4.0180430579211050e-02  2.5402360968830483e-02  7.5242471868920502e-01  3.2734760155245934e-01  7.2139234711753941e-01  7.1218805242385419e-01  7.0791199229206425e-01  6.6795459468625351e-01  6.7660101121212157e-01  0.0000000000000000e+00  1.0764980437173392e-02  9.6318285484882513e-02  9.6884847843895297e-02  1.3085724084808020e-01  4.7877066110904842e-01  1.2464707640670974e-01  3.1866904379457939e-01  3.0657720115466264e-01  3.3201648727700939e-01  2.9540934184166417e-01  4.5966480019750211e-01  4.4625148827885097e-01  5.8555171941307127e-01  2.5020411239602891e-01  2.6064451895161173e-01  2.7149636532854637e-01  2.6059601408696531e-01  6.3854801552177565e-01  1.8597379231699460e-01  5.3361074860133451e-01  3.4601677726239283e-01  4.3195019414181079e-01  1.5371919225188294e-01  5.0143671603746864e-01  1.7039538814377678e-01  5.1806394700780500e-01  6.8834599457511275e-02  3.0536173077049245e-01  7.5354851118274044e-02  6.9972351609461567e-02  5.6405510445571561e-01  2.1644307731023116e-01  2.2679178660776167e-01  4.3909488161942867e-01  3.3922378325308833e-01  6.1471869959352543e-01  1.3994481098769265e-01  4.8784101197500723e-01  5.9122988358353634e-01  5.8842950570148400e-01  3.7388153025536941e-02  7.4403236661953054e-01  6.5347216087472915e-01  7.5078102926133428e-01  7.6723833667828489e-01  7.7799120539994482e-01  6.7611209423293051e-01  2.3796578289517961e-01  2.8340168214128764e-01  3.8918055518830913e-01  6.0819201542337975e-01  3.3994360074418452e-02  6.3083194383355123e-01  7.6667182652162547e-01  1.4731030314526489e-01  4.9487914518997150e-01  3.6669775573446328e-01  4.1163758603311523e-01  7.9320935027945835e-02  7.7799072594895324e-01  0.0000000000000000e+00  1.1331435264855859e-02  1.6997350706500355e-01  5.1761305443191530e-01  7.0094041181580136e-01  6.1546960919446436e-01  5.8648029394474027e-02  5.0918141235604453e-01  1.6147475364684069e-01  9.3760431476577824e-02  6.7948737306071361e-01  5.6729079863843224e-01  2.1497190960067850e-01  6.3979804660089545e-01  5.4145417144272878e-01  1.9381776665496581e-01  4.5094975533604448e-01  6.8120622197631731e-01  6.5969816445511298e-01  2.6908493844921755e-01  5.7366620450455053e-01  2.2606298171315642e-01  2.9044379171717627e-01  5.3065706032109450e-01  1.8300461047896224e-01  2.4758700823116075e-01  5.5215927593425596e-01  2.0453427094196372e-01  7.2422236908912629e-01  7.0271428740987174e-01  3.1107223272807571e-01  5.3824855276856549e-02  3.0614220375012824e-01  1.2714192326950499e-01  4.7253424569066860e-01  2.6117325702808231e-01  7.1361035476810486e-01  2.6071139000285157e-02  2.8313971896536355e-01  6.9733726824546949e-01  7.2176697745949836e-01  2.3848590902155073e-01  7.4402988657233951e-02  2.8103230786928834e-01  4.4042359658953666e-02  6.4779959679188381e-01  6.6590293960713287e-01  1.0312784092488035e-01  5.2351369731318997e-01  1.7587350485287861e-01  6.4932703772527156e-01  2.3609644616681971e-01  7.5542999245692866e-01  4.9932029223182761e-01  1.5165320045343367e-01  4.8175022108084153e-01  2.4771658598812737e-01  6.5913217628849663e-01  5.5454157600687837e-01  2.0692082131398284e-01  5.4298780875078800e-01  1.9535759267240446e-01  1.4164453705244201e-01  7.4035346069205055e-01  2.2586450247215545e-01  1.0032868233957293e-02  4.9274286123128275e-01  1.4494354057270420e-01  8.4986681058918087e-02  8.7519331616926974e-02  2.9231668463685906e-01  4.6988267834008163e-01  2.6982688384178333e-01  2.5834885962905056e-02  9.6476300678205364e-03  1.2208546861836866e-01  4.8915846183288664e-01  7.3666658270593277e-01  4.5300074899777970e-01  3.2787134849349397e-01  6.0534087869170627e-01  5.5877333373082205e-01  6.2909545963014424e-01  1.9688192846686523e-02  1.1909611820995063e-01  1.1588098880449985e-01  1.0475415014549846e-01  6.9378427656087782e-01  1.0720438938518800e-01  3.3570058426854388e-01  1.3458056769164445e-01  3.1520247907565824e-01  4.5765560552092832e-01  7.5891099641924042e-01  7.7093670831622196e-01  7.6980061141203404e-01  7.2959939550717046e-01  6.2323492887326089e-02  4.4179183275830047e-01  4.2582133666349925e-01  3.5251843903352920e-01  4.0257875680057797e-01  3.7581451702150603e-01  6.5432115384735279e-01  6.8447666398740281e-01  7.8100970812668216e-02  2.8912797750273983e-01  6.0855077682753778e-02  5.8309417780872708e-01  5.5451177079927888e-02  4.5195605990456876e-02  1.2456950640283468e-01  1.6217217688188157e-01  5.0986649810880258e-01  5.4677171824597592e-01  1.9823669865077867e-01  5.0484892792974889e-01  1.5722932754282160e-01  1.0204203812887216e-01  2.0991664116210501e-01  5.5753570262182151e-01  7.6594828034689422e-01  2.4363357441209094e-01  6.3281309489543403e-01  7.4401654832467146e-01  2.5296706476807518e-01  2.5509262038286151e-01  6.2205906586516413e-01  7.6101248340517547e-01  4.7604318594181329e-02  4.6567272718533348e-01  1.5660112003662555e-01  5.0424101610856875e-01  1.4442404793969119e-01  4.9205061007520218e-01  5.6969584522276739e-01  5.7904310291080097e-01  5.8433209515900730e-01  1.6997350948388844e-02  7.3655158547766580e-02  5.7635590343509580e-01  4.0153982503905822e-01  3.7778787096396049e-01  1.8070387239584339e-02  1.7001891600534133e-01  1.7779219513566955e-01  5.2478982640385274e-01  5.3193992643067567e-01  5.1718672137194721e-01  1.8483658741784895e-01  7.7799101288304828e-01  7.7233548406980845e-01  6.7629736598399208e-03  5.7103468581294381e-01  2.5497205837617526e-01  2.2096608953359925e-01  4.5336191312514651e-01  3.1260248635107829e-01  2.3161812618101082e-01  2.3558394640999433e-01  5.9638576163248191e-01  1.8879917808871358e-01  1.7631718677121525e-01  5.2397974440435779e-01  2.9931763656373389e-01  2.9576323179922426e-01  7.7204811646264404e-01  2.7987816118487313e-01  2.7616529990742800e-01  1.1403517178405548e-01  4.4785897712411915e-01  7.4380460752807875e-01  1.3694690982117988e-01  4.8254289913419718e-01  4.5094328061406203e-01  5.7614612776089123e-03  7.1499369070399910e-01  1.0226734519005221e-01  2.0963384386396097e-01  6.9664665799069536e-01  6.8127792479421012e-01  6.8395826514243319e-01  6.2169890030629882e-01  6.1959582883685982e-01  3.0068534333052793e-01  5.7062654489814468e-01  5.7543122068941732e-01  5.8398267740583121e-01  3.5845762826202870e-01  1.8838707632679808e-01  5.3603124218159803e-01  6.7156217165888688e-01  6.6507517612822975e-01  6.5725797708658951e-01  8.6495429847257554e-02  7.0721978175762223e-01  2.2323715943131187e-01  4.6329546687908341e-01  3.1606036132813109e-01  5.4761938926835152e-01  1.9998954869218066e-01  2.8329035327569974e-02  3.2477169444963032e-02  6.9675914386097115e-01  5.9448317337647627e-01  4.6818262261622978e-01  3.2426490326873958e-01  2.6780048248396027e-01  1.1690979529330628e-01  4.1875449652687369e-01  4.7941223131364108e-01  3.1569516777845774e-01  6.0253199161149651e-01  5.9588421867938357e-01  5.3639347969243389e-01  4.5676795612739812e-01  7.7046703338478317e-01  2.0114123191638444e-01  5.4876613912107652e-01  7.2705250770954333e-01  7.2988237939017042e-01  8.8951855688934614e-02  4.1654272461088770e-02  2.0013295176720400e-01  1.3400776202976905e-01  6.0973815870515335e-01  5.4963436969108485e-02  6.8624827783303044e-01  3.3033926607603642e-01  1.0955663622814400e-01  2.6751274424295812e-01  6.2188809518646659e-01  3.1055838967634453e-01  5.5966256534383141e-01  6.0796625054669917e-01  6.7319723936338161e-01  1.5609228565044930e-01  5.0382440633841397e-01  2.8727106789458989e-01  7.4969251339324783e-01  2.2379925341034018e-01  7.3837242781811008e-01  7.2976781769454757e-01  7.3668104917699886e-02  6.3323390945837199e-01  6.0950823624542039e-01  2.9950924267583895e-01  6.3172572568319896e-01  2.8728404897177862e-01  2.2198338538397355e-01  2.0837499869332912e-01  3.3598822927469740e-01  3.3943089999205839e-01  4.8583769879730782e-01  4.6489764592146843e-01  3.2279484088227028e-01  2.6449114204783514e-01  0.0000000000000000e+00  5.9205427095181447e-03  2.4242366920597641e-01  6.3288422216076812e-01  6.4661600254987839e-01  6.4406310931252186e-01  3.2249955249825872e-02  6.9145259585047369e-01  3.4154495926035359e-02  9.1289591185514343e-02  2.5213725287903394e-01  5.4663327709177467e-01  2.1068993174363304e-01  7.4275104404050163e-01  5.1381246585332452e-01  4.4188809396194212e-01  4.3780406049870130e-01  2.4278826654622632e-01  7.1884534971763658e-01  7.1441273330910027e-01  7.2690518889243738e-01  7.2050454389818464e-01  2.1067083286595836e-01  5.5828842526456002e-01  3.1117043425743918e-01  2.7659453839018705e-01  2.4220698969067431e-01  2.4485006044490393e-01  6.4193274674243117e-01  3.2217538685660363e-01  1.6602481038973801e-01  7.2912279521034584e-01  7.0856920768646969e-01  7.1849961495315584e-01  3.5353530894483282e-01  8.1005196292730855e-02  4.7786920641060104e-01  2.3229850925598372e-01  2.7485969700294460e-01  2.8951320375228173e-01  5.1852586459286067e-02  5.1454406402381503e-01  1.6685725147841921e-01  7.3652106456887978e-01  2.9966241890753242e-01  2.6521398684887459e-01  7.5125723532890465e-01  2.6415699481043060e-02  1.7194018698935265e-01  5.1194289625144596e-01  1.6430748400084361e-01  5.1958350102244799e-01  1.2117955876330376e-01  1.5065705542008639e-01  4.9824765714882535e-01  4.6702296485749889e-01  6.0816577486564816e-01  6.3887902245215289e-02  4.2551959004310119e-01  2.3153216219314943e-01  2.2172000357252139e-01  2.5390100819236633e-01  4.9032291931792971e-01  4.3256675658191307e-01  3.3156256632923159e-01  3.0989606508944617e-01  3.4455568219471894e-01  1.2985281848801963e-01  9.1502356324317718e-02  6.3649210649193932e-01  1.6816892081460372e-01  5.1584922495274865e-01  5.3460678239884352e-01  5.3885742165360795e-01  1.8697082992042188e-01  1.9122453452971622e-01  5.8979705393665915e-01  5.9827716290798927e-01  6.9105796075604775e-01  3.9660490155039647e-02  2.6322989327644444e-02  2.8513318877757710e-01  6.1385198781439687e-01  1.8966696540382230e-02  7.6064647508298744e-01  7.2153386009637721e-01  5.5544861674887785e-02  1.3696866685497280e-01  4.7590565657481376e-01  4.7454507292030818e-01  1.2843299140016326e-01  7.0307464567658828e-01  2.3005248778116771e-01  6.0206504703596531e-01  6.7582920580405970e-01  6.7171100981676612e-01  1.6427780629445390e-01  5.1195366553029364e-01  5.6857156448023893e-01  3.9513356410591033e-02  7.5001942717341674e-01  7.5252238539888816e-01  6.8177235492014321e-01  6.5789019484582378e-01  7.5330499883516444e-01  6.7098093790521585e-01  6.6527997429801466e-01  6.6177342245377613e-01  1.4315293761961811e-01  4.5921092154475103e-02  9.4574661210682143e-02  9.9213407466507211e-02  9.1548370405746510e-02  4.5397972825164856e-01  3.2702967352368223e-01  1.3078393830883031e-01  6.4781206992219675e-01  6.4335416788566357e-01  3.2032901676578067e-02  2.6912435211782357e-02  5.9765484957637116e-01  3.6595095977478104e-01  3.5665620507909040e-01  4.1345560461996778e-01  6.9984906744887831e-01  1.5654189416840800e-01  5.0422457004755206e-01  1.4774123281422019e-01  4.9547570555302084e-01  1.5094868195475594e-01  4.9870411982540241e-01  7.5631597759518321e-01  7.4660219267499572e-01  7.5144554130197841e-02  7.1372083893322458e-01  7.0809131132549152e-01  2.9923956023433929e-01  3.0411725795415706e-01  6.7496761850392231e-02  7.7062430284502340e-02  5.3824796183893370e-03  2.7890067680828895e-01  2.5903422472083482e-01  5.8842988277053010e-01  1.8088646189556831e-01  5.3040089186184958e-01  5.3785987640366384e-01  1.8413791227005802e-01  5.3177516846845729e-01  1.8992389326954612e-01  6.4660196667638448e-02  6.9972351793167450e-02  7.2690072158207442e-02  5.8951683153414880e-01  7.0326771129228705e-01  5.7989183737408312e-01  5.0991904573360503e-02  1.0764956320803187e-01  2.5445860680901417e-01  6.7851771430230323e-01  4.2170001966752507e-01  5.1477662136914093e-01  1.6997466701449956e-01  7.0792767750623442e-01  5.6348385277885471e-01  2.1587091080852089e-01  1.3031315063823937e-01  7.5871956042018307e-01  7.7203193680045634e-01  4.4655060625317938e-01  3.4465311193351167e-01  4.3367971367559344e-01  3.3452971994765107e-01  4.8442377834241247e-02  6.2517207314855927e-01  1.3630627985041546e-02  6.3753815757983923e-01  5.8508831292820029e-01  5.8267836743231827e-01  3.0494757161866470e-01  6.1349741345412556e-01  7.6436845414511667e-01  6.8910529826774397e-02  2.6371560648051418e-01  6.5083820193051023e-01  7.7261689677865408e-01  7.7799124538886211e-01  6.5486459372762806e-01  3.2219329006030850e-01  5.0097312352004889e-02  3.4611568381296720e-01  4.4422541780815761e-01  5.6384924416912341e-01  1.8204492713646314e-01  5.2969828753078130e-01  1.5671592981817414e-01  5.0443609711673121e-01  5.8448400249147681e-01  4.7224814330056214e-01  7.2473744942956897e-01  5.6574150709004833e-01  7.9170095764607831e-02  8.0737354153469124e-02  3.8631676835002383e-02  3.7730501309869779e-01  3.9011529453254412e-01  4.0104912296001916e-01  4.5969630114716975e-01  5.9207347735703610e-02  1.1303235009124174e-01  6.7959091463049362e-02  4.5116852355876313e-01  3.7969488857467155e-02  3.2499641364371207e-01  2.4221204891029684e-02  2.1535279338937494e-02  9.6992986053240859e-02  9.6475921635903