<?xml version="1.0"?>
<VTKFile type="UnstructuredGrid"  version="0.1"  >
<UnstructuredGrid>
<Piece  NumberOfPoints="2555" NumberOfCells="4406">
<Points>
<DataArray  type="Float64"  NumberOfComponents="3"  format="ascii">-20 2 0  -20 0 0  -1 0 0  -0.9996988186962042 0.02454122852291233 0  -0.9987954562051724 0.04906767432741797 0  -0.9972904566786902 0.07356456359966773 0  -0.9951847266721968 0.09801714032956083 0  -0.99247953459871 0.1224106751992163 0  -0.989176509964781 0.1467304744553618 0  -0.9852776423889412 0.1709618887603012 0  -0.9807852804032304 0.1950903220161286 0  -0.9757021300385285 0.21910124015687 0  -0.970031253194544 0.2429801799032641 0  -0.9637760657954398 0.2667127574748985 0  -0.9569403357322088 0.2902846772544624 0  -0.9495281805930367 0.3136817403988914 0  -0.9415440651830207 0.3368898533922203 0  -0.9329927988347388 0.3598950365349883 0  -0.9238795325112867 0.3826834323650899 0  -0.9142097557035307 0.4052413140049899 0  -0.9039892931234433 0.427555093430282 0  -0.8932243011955152 0.4496113296546069 0  -0.8819212643483549 0.4713967368259979 0  -0.8700869911087113 0.4928981922297841 0  -0.857728610000272 0.5141027441932218 0  -0.8448535652497071 0.5349976198870972 0  -0.8314696123025453 0.5555702330196022 0  -0.8175848131515836 0.5758081914178454 0  -0.8032075314806448 0.5956993044924335 0  -0.7883464276266062 0.6152315905806269 0  -0.773010453362737 0.6343932841636455 0  -0.7572088465064846 0.6531728429537766 0  -0.7409511253549589 0.6715589548470186 0  -0.7242470829514668 0.6895405447370671 0  -0.7071067811865475 0.7071067811865476 0  -0.6895405447370669 0.7242470829514669 0  -0.6715589548470184 0.740951125354959 0  -0.6531728429537765 0.7572088465064847 0  -0.6343932841636454 0.7730104533627371 0  -0.6152315905806267 0.7883464276266063 0  -0.5956993044924334 0.8032075314806449 0  -0.5758081914178453 0.8175848131515837 0  -0.555570233019602 0.8314696123025455 0  -0.534997619887097 0.8448535652497072 0  -0.5141027441932217 0.8577286100002721 0  -0.492898192229784 0.8700869911087115 0  -0.4713967368259977 0.881921264348355 0  -0.4496113296546067 0.8932243011955152 0  -0.4275550934302819 0.9039892931234434 0  -0.4052413140049897 0.9142097557035307 0  -0.3826834323650897 0.9238795325112867 0  -0.3598950365349882 0.9329927988347388 0  -0.3368898533922199 0.9415440651830208 0  -0.3136817403988914 0.9495281805930367 0  -0.2902846772544622 0.9569403357322089 0  -0.2667127574748983 0.9637760657954398 0  -0.2429801799032639 0.970031253194544 0  -0.2191012401568697 0.9757021300385286 0  -0.1950903220161282 0.9807852804032304 0  -0.1709618887603012 0.9852776423889412 0  -0.1467304744553616 0.989176509964781 0  -0.1224106751992162 0.99247953459871 0  -0.09801714032956065 0.9951847266721969 0  -0.07356456359966733 0.9972904566786902 0  -0.04906767432741801 0.9987954562051724 0  -0.02454122852291214 0.9996988186962042 0  6.123233995736766e-17 1 0  0.02454122852291226 0.9996988186962042 0  0.04906767432741813 0.9987954562051724 0  0.07356456359966745 0.9972904566786902 0  0.09801714032956077 0.9951847266721968 0  0.1224106751992163 0.99247953459871 0  0.1467304744553617 0.989176509964781 0  0.1709618887603014 0.9852776423889412 0  0.1950903220161283 0.9807852804032304 0  0.2191012401568698 0.9757021300385286 0  0.242980179903264 0.970031253194544 0  0.2667127574748984 0.9637760657954398 0  0.2902846772544623 0.9569403357322089 0  0.3136817403988916 0.9495281805930367 0  0.3368898533922201 0.9415440651830208 0  0.3598950365349883 0.9329927988347388 0  0.3826834323650898 0.9238795325112867 0  0.4052413140049899 0.9142097557035307 0  0.4275550934302822 0.9039892931234433 0  0.4496113296546066 0.8932243011955153 0  0.4713967368259978 0.8819212643483549 0  0.4928981922297841 0.8700869911087113 0  0.5141027441932217 0.8577286100002721 0  0.5349976198870973 0.844853565249707 0  0.5555702330196023 0.8314696123025452 0  0.5758081914178453 0.8175848131515837 0  0.5956993044924335 0.8032075314806448 0  0.6152315905806268 0.7883464276266062 0  0.6343932841636455 0.773010453362737 0  0.6531728429537768 0.7572088465064845 0  0.6715589548470183 0.7409511253549591 0  0.6895405447370669 0.7242470829514669 0  0.7071067811865476 0.7071067811865475 0  0.724247082951467 0.6895405447370668 0  0.7409511253549591 0.6715589548470183 0  0.7572088465064846 0.6531728429537768 0  0.773010453362737 0.6343932841636455 0  0.7883464276266063 0.6152315905806268 0  0.8032075314806449 0.5956993044924334 0  0.8175848131515837 0.5758081914178453 0  0.8314696123025452 0.5555702330196022 0  0.8448535652497071 0.5349976198870972 0  0.8577286100002721 0.5141027441932217 0  0.8700869911087115 0.492898192229784 0  0.881921264348355 0.4713967368259976 0  0.8932243011955153 0.4496113296546065 0  0.9039892931234433 0.4275550934302821 0  0.9142097557035307 0.4052413140049899 0  0.9238795325112867 0.3826834323650898 0  0.932992798834739 0.3598950365349881 0  0.9415440651830208 0.3368898533922201 0  0.9495281805930367 0.3136817403988915 0  0.9569403357322088 0.2902846772544623 0  0.9637760657954398 0.2667127574748984 0  0.970031253194544 0.2429801799032639 0  0.9757021300385286 0.2191012401568698 0  0.9807852804032304 0.1950903220161282 0  0.9852776423889412 0.1709618887603012 0  0.989176509964781 0.1467304744553617 0  0.99247953459871 0.1224106751992162 0  0.9951847266721969 0.0980171403295606 0  0.9972904566786902 0.07356456359966743 0  0.9987954562051724 0.04906767432741801 0  0.9996988186962042 0.02454122852291229 0  1 0 0  20 0 0  20 2 0  0 2 0  10 2 0  -10 2 0  10.5 0 0  5 2 0  -10.5 0 0  -5 2 0  15 2 0  5.75 0 0  2.5 2 0  -15 2 0  -5.75 0 0  -2.5 2 0  15.25 0 0  3.375 0 0  -15.25 0 0  -3.375 0 0  17.5 2 0  17.625 0 0  -17.625 0 0  -17.5 2 0  -12.5 2 0  -12.875 0 0  8.125 0 0  7.5 2 0  12.875 0 0  12.5 2 0  -8.125 0 0  -7.5 2 0  -18.75 2 0  -18.8125 0 0  18.75 2 0  18.8125 0 0  -16.25 2 0  -16.4375 0 0  16.4375 0 0  16.25 2 0  13.75 2 0  -14.0625 0 0  -13.75 2 0  11.6875 0 0  -11.6875 0 0  -9.3125 0 0  8.75 2 0  -8.75 2 0  6.9375 0 0  6.25 2 0  -6.9375 0 0  -6.25 2 0  9.3125 0 0  -11.25 2 0  11.25 2 0  3.75 2 0  4.5625 0 0  -4.5625 0 0  -3.75 2 0  1.25 2 0  -1.25 2 0  14.0625 0 0  2.1875 0 0  -2.1875 0 0  -20 1 0  20 1 0  18.21875 0.982421875 0  -18.21875 0.982421875 0  16.875 1.0498046875 0  -17.03125 0.966796875 0  15.625 1.0625 0  -15.84375 0.953125 0  14.375 1.0732421875 0  -14.375 1.0732421875 0  1.830289387965117 1.052284088108649 0  -1.830289387965117 1.052284088108649 0  -3.125 1.08203125 0  -13.28477656888586 1.012129001112436 0  13.125 1.08203125 0  3.125 1.08203125 0  -4.375 1.0888671875 0  11.875 1.0888671875 0  -11.875 1.0888671875 0  4.203765290519877 1.0193030867737 0  -5.625 1.09375 0  5.625 1.09375 0  -10.80634835916782 1.025744365312066 0  10.625 1.09375 0  9.375 1.0966796875 0  -6.875 1.0966796875 0  -9.375 1.0966796875 0  6.684990875912408 1.03136405109489 0  -8.322099415573495 1.036062682633283 0  8.125 1.09765625 0  19.11075969939671 0.8508947319664032 0  -19.11075969939671 0.8508947319664032 0  -7.53125 0 0  8.71875 0 0  7.423362102206937 0.6655467048188293 0  9.90625 0 0  -6.34375 0 0  -10.07209987056368 0.6864155791813131 0  -5.15625 0 0  4.932893941568688 0.70313517104756 0  11.09375 0 0  -3.96875 0 0  12.28125 0 0  -12.56167362378033 0.7158719711052053 0  -15.12789358749343 1.239622257084254 0  19.375 2 0  -19.375 2 0  -7.586458743762512 0.7777256637040587 0  -8.876841588719831 0.5749490497356908 0  -2.78125 0 0  13.46875 0 0  2.486351124110562 0.6882204272146759 0  -2.484375 0.6875496078884429 0  13.765625 0.6685592193186988 0  6.127605163798639 0.5971727330055587 0  0.625 2 0  -0.625 2 0  -1.146535794159178 1.28513409566998 0  1.146535794159178 1.285134095669981 0  14.65625 0 0  14.953125 0.6512707752786624 0  -14.87682753143027 0.5890664696931456 0  12.578125 0.6384885491877257 0  -3.671875 0.6384885491877257 0  -15.625 2 0  -11.36675239212577 0.6158089665857418 0  15.00271470412651 1.324726469417674 0  17.53235848397354 0.7266244978817956 0  11.390625 0.6116981677410314 0  -4.859375 0.6116981677410314 0  15.84375 0 0  16.140625 0.6148897058823529 0  7.497593266890831 1.330710907262048 0  13.76254792112057 1.334335181755445 0  -10.20969602084016 1.352738855957021 0  17.03125 0 0  3.639986821556412 0.6311208834101457 0  -2.422032960990368 1.344610008595471 0  -1.875 2 0  2.42168763602468 1.344854035092462 0  1.875 2 0  -6.046875 0.5879464285714285 0  10.203125 0.5879464285714285 0  4.785027294216357 1.360955117010924 0  -16.43327865604348 1.32661481258014 0  -16.44139997701004 0.663326532427168 0  -12.71719161438206 1.366886164755866 0  9.015625 0.567039754702805 0  -13.85227446991684 0.6433291643838606 0  17.68435132148515 1.367585767263021 0  -8.125 2 0  -7.779164034427432 1.405551895778211 0  6.875 2 0  -16.875 2 0  16.25211206745888 1.264109755085799 0  -3.748868614850469 1.292331074664245 0  12.50113138514953 1.292331074664245 0  -4.999425840599162 1.238293400364507 0  11.25057415940084 1.238293400364507 0  10.00021284174179 1.186027320246887 0  -6.249787158258211 1.186027320246887 0  8.750028772491092 1.133996757348608 0  8.125 2 0  -9.375 2 0  -6.875 2 0  9.375 2 0  10.625 2 0  5.625 2 0  -5.625 2 0  -11.875 2 0  11.875 2 0  -4.375 2 0  3.125 2 0  13.125 2 0  -14.375 2 0  14.375 2 0  15.625 2 0  -18.125 2 0  16.875 2 0  -3.125 2 0  -10.625 2 0  4.375 2 0  -13.125 2 0  18.125 2 0  -17.62042339570457 1.322431301452557 0  -17.64048254773117 0.661277151197267 0  -1.59375 0 0  1.59375 0 0  -19.40625 0 0  19.40625 0 0  20 0.5 0  19.0625 1.466926268772181 0  -18.7305243036722 1.362703047674974 0  -5.451064633443578 0.5209722999527524 0  10.79893536655642 0.5209722999527524 0  9.610417111950763 0.5183010867631196 0  -13.46875 0 0  3.96875 0 0  -11.09375 0 0  6.34375 0 0  2.78125 0 0  -8.71875 0 0  -12.28125 0 0  5.15625 0 0  -9.90625 0 0  7.53125 0 0  -15.84375 0 0  -17.03125 0 0  -18.21875 0 0  18.21875 0 0  -14.65625 0 0  20 1.5 0  -19.48071156660626 1.370757229128913 0  -20 0.5 0  -4.24552725411087 0.5169543671041
[...]
<PointData  Scalars="f_21170"> 
<DataArray  type="Float64"  Name="f_21170"  format="ascii">-4.1730259464688843e-08  -2.9927812865915401e-09  -1.0291054989429709e-07  -1.3079041188651705e-07  -4.2738970869334994e-08  1.0442259195803274e-07  1.3761172238662475e-07  2.6090121472349930e-07  3.1633204472491968e-07  6.1970674901386603e-07  6.5641200664211762e-06  1.2004583815933954e-06  6.1085623510566165e-07  3.6365004456261252e-07  5.8431948430010051e-07  1.4402947635947377e-07  1.0056340904026477e-07  1.6884797200365620e-07  9.5772100528713847e-08  9.3781533780560540e-08  5.8403314881881373e-07  3.2727726592640907e-07  2.0182006725040461e-07  4.0813900144295423e-08  9.7308425200647969e-07  8.1766070886228833e-07  1.3969754974624025e-07  2.8020046589332984e-07  3.3931102651326645e-07  1.4245455970730584e-07  1.9717794388746725e-07  3.0387142979830645e-07  5.9668554272989057e-08  9.3956673876529841e-08  1.4231748204835438e-07  1.6558819850195235e-07  2.6863231124262900e-07  3.4696971556569912e-07  1.1242488529353650e-07  1.1769950500663824e-07  3.3024196594663063e-07  1.3506821671955443e-07  1.2293032695041929e-07  1.7554266981011622e-07  2.4742143510220103e-07  2.2341850567524366e-07  7.5940829561133926e-06  2.8637303515987822e-08  4.2544602924283524e-08  4.4097388260536421e-08  6.0968784747335918e-08  1.2753107502728991e-07  5.4136723165824737e-08  4.0537337044965537e-08  3.2658586753899387e-08  1.0185196893907756e-07  8.6219761726931782e-08  1.1825419750082060e-07  7.5505972014809688e-08  8.3264558138138457e-08  9.1204176727222880e-08  2.0363908453029487e-08  1.7383483876053986e-08  5.8222001128950171e-09  5.7245998470549581e-09  -1.1878147888398759e-08  -3.1324315777228989e-08  -6.9825776372526304e-09  -5.3771726731007021e-08  -1.4528905945689862e-08  -4.1212238176363491e-08  -1.5219158904285366e-07  -2.8679934978687356e-08  -6.9452842136213369e-08  -6.5133129629427943e-08  -2.6662182620429832e-08  -3.9171017989221605e-08  -4.7559425781624141e-09  -8.3230559945661765e-06  -1.7852858460436933e-07  -7.5773874272987741e-08  -2.1766808613524179e-08  -4.9926958972707557e-08  -1.4477588893134252e-07  -1.0975207758401704e-07  -1.2160008180443845e-07  -1.9203533033791579e-07  -2.1778250451127183e-07  -4.1381988560608721e-07  -3.0671051629369252e-07  -2.1783380405650622e-07  -2.3447272002574816e-07  -2.7758817431825038e-07  -1.3602820915701603e-07  -1.0209028730117089e-07  -8.5748769649067773e-08  -2.3375610803553577e-07  -2.5919624886199122e-07  -1.9688930538268740e-07  -2.0263918409211851e-07  -4.0304441583403164e-07  -3.0140148238175289e-07  -8.9265921300913171e-08  -7.1545946049269260e-08  -2.8650012765339864e-07  -1.3640901123404817e-07  -1.3040812691523262e-07  -6.2398880590739032e-08  -4.1809208513678281e-08  -2.3965291561695253e-07  -1.1312522503364797e-07  -5.0875427489079770e-07  -1.3990363140195443e-06  -6.2673293850755730e-07  -8.6400085838952858e-07  -9.0600762946714774e-06  -1.0690890324217473e-06  -5.0261657321437053e-07  -5.8735788200481070e-07  -2.5925189036309457e-07  -4.1743700924390400e-07  -4.5701476362698031e-07  -4.2031234877851982e-07  -1.8084497455714020e-07  -3.0624093711389907e-07  -5.2993642168377749e-07  -3.7566262341278568e-07  -3.8865352846750656e-07  -1.4811903696906935e-07  1.0918559716773211e-07  9.4337864862705191e-08  -5.0886235012240380e-07  4.0801500544165520e-09  -4.6007530729660590e-06  3.5036555693521955e-10  4.8086264508503676e-09  -7.6290003012599964e-09  2.0566492254871461e-08  -1.4791981599393218e-08  -7.6506912786453200e-08  -4.8590517601545114e-08  2.5604387573160749e-08  1.3593108729118148e-06  2.7323351021556895e-09  1.1455290137112396e-07  -1.4970322253503639e-06  -3.2731051722529623e-08  -2.1410354251636579e-07  -6.2934549744442975e-10  4.3130141176047220e-07  -8.9533940639394242e-09  1.0805471451301182e-09  -2.0844744779992203e-07  -8.1790512583788512e-08  -9.9130720083216278e-09  -1.3407528176471265e-07  3.5953807173353135e-08  -1.8313266217857736e-07  -1.0316265632653165e-08  -1.1779531254572840e-07  5.0760181366935554e-08  -2.2418985977708484e-08  -2.7000123711000064e-08  1.1562537951383989e-08  3.0973249749089249e-08  -7.5073924601707288e-08  -7.4798338072135458e-09  -5.1022123813728321e-08  -6.6077884647996350e-09  -8.6378880573875509e-09  5.8439121351938822e-08  1.1164827236785526e-08  1.7890192661681044e-08  -1.7327262497508856e-08  -7.9235956724570507e-08  -5.5812086454632236e-07  -1.2727716860888509e-08  -2.9137708610448789e-08  -9.2097997939557103e-09  -2.2512975568197645e-09  -8.1500143866592471e-08  3.5904395181990235e-08  6.7699095536560081e-09  -1.2253774766812431e-08  -5.9403958424526442e-08  6.1025599676089747e-07  8.6306822094871703e-09  5.7628440532896849e-08  -2.9722371605234975e-07  4.4369580103189350e-06  -7.7682528211742496e-06  1.1975425647754487e-07  -1.9914450400940063e-06  4.0946046718227615e-06  1.2061661713715482e-07  -2.3441216443839599e-09  6.1783576043012098e-08  -2.5050061951016704e-07  4.4988712693071065e-08  -2.2345772371986351e-07  1.6874212103052627e-08  -6.8456392912334496e-08  3.3753655317502172e-08  -2.5294596221298474e-08  -1.3049681040248431e-04  1.3149775042462127e-04  1.5974353215415192e-05  9.8545521387725319e-08  6.8518207383757101e-09  -1.5081132739734655e-05  1.9717137369300989e-06  1.4702795184369283e-08  6.6337937606391315e-08  -2.5390385874042465e-06  3.0240930743199945e-07  -1.9379392546160891e-07  6.2024441653533285e-08  -2.3506098582308470e-08  3.6595847850343390e-08  1.2021799852038606e-08  5.4026939815290958e-08  -4.7772610295872998e-08  -3.4178154536616303e-08  -1.0630456468915048e-07  2.5915776888532413e-07  -2.6222837394897830e-07  -4.5550206032960723e-07  -3.2072029327367451e-08  -4.3587209467337335e-08  9.0546330503845467e-08  -4.6969910776355824e-08  -9.4936579421884261e-08  3.0902097805817623e-08  -6.3133221822392542e-07  7.8877427590583812e-09  1.0741987213367925e-07  -9.0267192228605559e-09  7.7712250118913720e-08  1.6685412120145942e-08  -7.3016373699654680e-08  -1.1117846643091312e-08  -2.8231606702229282e-07  -3.4371623498919018e-07  -6.0914691876034375e-07  -1.1101842162529726e-08  -4.3226225818492956e-05  4.1668953155805932e-05  7.6219931677117640e-08  -6.1909271250098911e-08  3.6537710995946726e-06  -5.9704787286083879e-06  2.6238071398937293e-04  -2.6702784119629071e-04  3.1883415680015415e-09  -1.1196405913924202e-09  1.2712090806378898e-08  -4.3620093269912061e-08  5.8773895936859346e-06  3.6889534461599034e-08  1.0160182840337809e-07  3.8624064020636467e-09  1.5349018657463264e-08  1.5156519202443558e-08  7.5773577791976781e-07  -5.4941605130929621e-08  -1.3661720447433936e-07  -5.5948050117798588e-08  1.6177277912032714e-07  2.8571383963459950e-08  -2.0091760117619139e-08  -5.7338086289909426e-06  3.8131183899923479e-05  -8.4985301569430879e-06  -3.8584008144839385e-05  2.2661089459911123e-06  8.5370587140632074e-08  -1.6798820462669280e-08  -6.3098433108566096e-07  2.9766172271555770e-08  4.2621337211368064e-09  3.1601171404269699e-08  -3.4543599047278239e-08  3.7218045465468163e-08  2.9755153359437829e-08  4.1856400995921854e-08  1.3240249235879740e-08  -4.0255449661178500e-08  3.6945503618644035e-08  -1.8671884371844274e-07  4.7077394615222218e-06  1.0612747593144839e-07  6.1454293136347432e-07  5.1652253634472150e-08  3.2098892548385059e-08  1.1545168196518044e-07  -2.2883178236797746e-08  1.3771607209554673e-07  -7.6710256170120154e-08  2.7013129591976024e-08  -7.3472027848738673e-09  -7.4672246239704422e-08  -5.4775620866488445e-08  -1.7727859847375767e-08  -1.0466055325181760e-08  2.4073565779989983e-08  -2.0410728994820720e-07  7.1246734119723730e-07  7.9077959356924661e-08  1.5877383867075884e-08  1.1554511080285969e-09  1.2650114542794938e-09  3.1948619253384365e-09  -4.5844329925910640e-08  -1.2477637095509834e-06  9.3681790708537013e-09  1.6103830194232084e-07  2.0410222966602082e-09  5.6184335544772277e-08  -2.3892870610463742e-07  -5.9578889844942027e-07  3.3032409010085644e-06  -4.6053928677982271e-07  -1.6158169040737257e-07  4.8536796384291113e-08  4.1710178957037989e-07  3.2268145117726818e-08  -3.5383521679636331e-08  5.2223136069276664e-07  1.4795969182105854e-08  1.4070317675251782e-07  -9.3898498257404873e-08  -7.2074637545880543e-08  1.7899329802073817e-08  -4.2441440133389687e-08  -1.7360436409796727e-07  -2.5142482805405479e-07  1.6774739943587317e-08  -6.0461551062276656e-09  -6.0006745203652519e-08  -8.5195782912902703e-09  -4.6271679483193564e-08  -5.1791951182457725e-07  8.2475928343744837e-08  6.0274910033410612e-09  -1.5739756835542885e-08  2.8945104714537204e-08  -1.4734447629794932e-07  1.2070042936334858e-07  1.8692759025650270e-06  -7.1520517422322480e-09  -4.3421538264387135e-09  -9.1621648945369507e-08  1.0975849002626914e-07  6.7064374721566964e-08  -1.5595074323683915e-08  -2.6567248215269190e-08  1.4345325552683589e-05  -1.3478705621258482e-05  2.4813753331019500e-04  -2.5204705785138946e-04  -3.5438053066284196e-08  5.7059059498426013e-08  -2.6630900611114448e-10  -5.8913280467947993e-08  -4.6052019211614894e-06  -1.2905494057585735e-04  1.3215810969281007e-04  5.2379540116151751e-08  -5.9745470460165281e-08  -1.5003351298274275e-07  -1.8238153606264127e-07  -5.6837533943532177e-08  -1.3211407295591970e-08  5.6183946830667508e-08  3.2446563980019447e-09  -3.1392749268957584e-07  -2.4476013651460290e-08  1.0237529354135924e-09  2.4252579154853257e-07  -2.9148264867917748e-08  -1.5906337530532525e-06  -1.9593585198496890e-06  7.0275828822602451e-08  -1.6912856033492167e-08  1.0112712202256832e-08  -3.0906444079922159e-08  -1.4438678422037682e-07  1.1258818522607111e-08  -3.9557707847928690e-08  -3.1299639701065979e-08  -3.5856827250233050e-08  4.5085855091131607e-08  3.4627842936587463e-07  1.4885366415131309e-08  -1.0281359106776180e-07  2.8184060360990598e-08  -4.2310550509160355e-08  5.8115012511376129e-08  4.2478234924871179e-08  1.9793091932042845e-08  -4.7232289401834043e-08  -8.1175451382609976e-08  7.4616334206137271e-05  -8.0976101214160498e-05  -8.5597997540081558e-05  2.8869913058212567e-07  9.7408923285975506e-05  2.8401368736539344e-07  2.3794114168661618e-08  1.9119143660873391e-07  1.6992456812181936e-08  1.6207750587184483e-07  -2.9532775036347370e-08  3.0104717312144766e-07  -9.7862964653386508e-08  4.0373841820658426e-08  -9.4245894213357840e-08  1.6526652604588832e-07  -5.5045891895770322e-09  -4.0097067615063316e-08  1.3793599127062090e-07  -9.4092257767762447e-06  1.0830485804218088e-05  -6.0378626247531926e-08  5.7743153967133155e-07  2.4629059613160196e-08  2.8982792108006953e-08  4.2208072478366615e-08  1.2444754773928488e-06  2.1014545467878730e-06  -2.8133740695934683e-08  -5.9977728469287517e-06  -4.0348439130123368e-08  -3.3611407764772684e-08  -1.1561857842139751e-08  3.6538883997160888e-08  1.1728707763789073e-08  1.0940971028608952e-08  -3.0840951894747589e-08  -2.9341245600578232e-08  6.5328018354113189e-10  -1.0601296361032339e-08  5.9092340399878596e-05  -6.2135832394602343e-05  1.0482355790861291e-04  -1.0074424920517582e-04  -2.3635253590518256e-09  -4.9519192191271586e-07  2.0825028071692674e-07  1.5815420043539964e-07  3.7885144947964345e-08  -4.2757699876245636e-08  3.5124150709277119e-08  7.6985131251424092e-07  2.4660244052952978e-08  3.6912188886734911e-04  -3.6823297269804155e-04  1.2213952682837539e-07  2.3191718323044318e-09  2.9435975198131789e-07  -2.6590492220345493e-08  -6.0835848009552805e-08  9.0054730211982571e-10  3.6203836497478094e-06  -5.4017162553876457e-08  -1.0759821430594482e-08  -2.5056785016893509e-09  4.8771565999632489e-08  -1.3306094553316116e-06  1.5618047708920751e-08  1.4061951314233359e-07  3.4874533522220352e-10  -1.5692883457874647e-08  -1.1506715182701754e-08  -2.9527349140427844e-08  -8.3034069374679187e-08  5.0115474625008871e-08  -1.9021715794442096e-08  -1.3462927936215044e-06  -1.5487322869594886e-08  -6.9875921002776493e-07  -1.6551689561137058e-08  2.6131257911011423e-04  6.3712855558641436e-09  -1.3525004655540708e-07  -1.5723592964334378e-09  2.9492951859325591e-08  3.0529208889345968e-07  -3.7340100107323555e-08  -9.3125242029849149e-08  -1.7628803497562051e-08  -1.4173401295126359e-08  -2.9369264033309099e-08  -4.4024327004477473e-04  1.4888069389830484e-08  3.7112601878631298e-08  5.2539140970555057e-08  -7.9996485243652253e-08  -5.7023623233822304e-08  2.7602858253603708e-07  1.6731231880949292e-08  -1.1770078568005153e-09  3.0321942113509618e-05  -3.2097864515418787e-05  -3.2897992900813787e-05  -1.9387599500475151e-05  -8.3375541635386994e-05  -8.6599812928329834e-08  2.0082307378775961e-05  3.7733429087670756e-05  7.3772035589607702e-05  4.7542735245739037e-04  9.1085924336309946e-08  5.2587667370449863e-08  -3.3305672242722268e-07  -6.8130898381128871e-08  9.0171867348351897e-08  -6.1024648000613378e-09  -1.6005804406692471e-05  1.3582500312113100e-05  3.8921431953464427e-08  4.4150110497851354e-08  -1.3683925162905165e-07  -2.1173698259798463e-08  3.8644726279263636e-09  2.1456003607212706e-07  -1.8440089522820885e-04  -2.6118978573631828e-08  5.3304217445604710e-07  1.7259265177362890e-08  -4.7262194320204914e-07  3.8431725471816565e-07  2.5545232434380048e-08  9.7197262587190110e-08  -2.0764683995952611e-08  -1.8198049746211084e-07  1.7142086204916067e-07  1.3461144129966084e-09  2.8884654549810045e-08  -7.3797422767327006e-08  1.0351571411853261e-06  -2.4899159119261203e-06  -3.4259572609769706e-06  1.8017172285800599e-06  -1.4884600134344352e-07  -9.6452895876111482e-08  -1.2102369251006824e-07  -1.5871762291558222e-07  4.1385067822116025e-08  2.1887180445505817e-06  8.9972627462565293e-09  1.1128364041117739e-08  6.3058700159347790e-06  1.0378034011514233e-05  2.2189229268466022e-08  2.8895965750348059e-08  -6.9738816845865187e-08  -1.9276338993394015e-08  2.0332814134144424e-08  -1.3690965027027275e-08  -8.1570275830596220e-08  3.5267485641115713e-07  -3.5679969742578311e-07  -7.7076634466577093e-08  3.0805129733155034e-08  1.7957390010931978e-08  1.5846612766723078e-06  9.8519490527760375e-05  -1.7652442273795188e-08  -1.3987433912731110e-07  -2.5127117284151989e-07  1.1403027964502748e-07  5.8707775679484036e-08  -6.2701553911866412e-09  -4.0128711131299813e-09  8.3689247436289348e-06  -4.7276454448972606e-09  -1.1133817803081556e-05  -3.9139666099331724e-06  -2.7998366239446203e-08  3.4933977716593800e-08  7.2349396809121846e-08  1.2647268719872943e-08  5.5961085594007422e-08  3.2714932679573796e-08  2.8197639116101892e-08  -2.7546024877781596e-07  -3.2662947158484301e-10  -1.6102451585468232e-08  1.3996056436520055e-06  8.5915717416382778e-09  -6.0597734007394729e-09  7.7694185966016090e-07  1.1904066463456352e-07  2.6007780510478450e-07  -7.7487728453238256e-09  6.5264120436454371e-09  -8.9860824725309498e-09  2.5703312704759281e-09  1.0283493949625062e-06  -5.3738938582455955e-08  4.6778125047184030e-08  -1.1913154119666921e-08  -2.1264301123164885e-08  -4.0716729832099431e-07  9.6610666183199102e-08  1.8629166783086054e-07  1.7919697820827070e-07  1.2974016906690306e-07  2.0398158552846805e-07  4.1389752599948198e-08  -1.3545982714254901e-07  -9.4192465177887133e-09  7.2288101946154530e-08  1.6674790356356708e-08  -1.0061895961714347e-08  -2.1889581625796642e-08  -5.4023801628164346e-08  -8.0124170831818665e-08  3.5883829406063221e-08  -7.3992766152627824e-08  -2.5752976492608857e-08  7.9701215957339751e-08  -3.6602824208566627e-08  1.8787752012639875e-08  -7.3924091986912545e-05  -5.6440364375781215e-08  5.3998296042480046e-08  1.3933761629544348e-08  1.6275169567474510e-08  -1.0261493686264008e-08  2.1179608338328510e-08  -1.4995992656418401e-08  1.7635900057848830e-07  1.4318630678933835e-07  -3.1041899067187900e-09  2.7181868389076785e-08  -7.2558430134465870e-09  9.1254739716759457e-09  -4.8031603641505146e-08  9.0441672842574667e-08  8.5925854699228095e-09  2.8789503632479279e-08  1.4012573383872014e-07  3.8774051045144785e-08  1.6701308172716759e-08  6.4618342227405384e-08  2.6387526878245021e-10  -2.4829803397708168e-05  -7.9056130394207236e-09  -1.8090884272275744e-07  1.0754874046443950e-07  -2.9902493031051719e-08  4.1366148885057469e-08  -2.3628039880767640e-08  -2.8022862553451253e-08  9.8869211420875535e-06  -6.0879265301281858e-08  3.8767518291812694e-07  1.3214275694889404e-06  -1.6135049807666939e-06  -3.6182231872454779e-08  1.1008064428611810e-09  4.1910708366858852e-07  2.6177926247016737e-06  -1.7724084488150650e-08  -5.3022815505217032e-08  2.9085301165703658e-08  6.5053034175997533e-09  -2.6030918424979133e-04  1.3958179983920046e-07  1.3450271195183246e-08  -1.2470782503872453e-05  5.9230378255588259e-06  1.4823931638845234e-07  8.7115976271311101e-09  -1.8571744318539493e-06  -1.1522444684303322e-04  8.8850039265169548e-09  1.2843672855169225e-07  2.9132246792997805e-08  1.5417939819158694e-04  -1.0418048395951955e-04  -1.4630739214011402e-08  9.0577131362215015e-09  2.9513029767366835e-08  -7.0510038255746595e-09  2.5517834396269900e-09  1.2945631708890866e-07  3.8447617281343226e-08  -1.1575952877940286e-04  7.4645869319196761e-05  -4.1712617851884843e-06  1.9096220103906718e-08  -1.7957798145658768e-05  1.8327975024904578e-08  4.1236318078491719e-08  1.3898212279235494e-07  -9.4492784233954394e-10  1.5370079352171438e-07  -2.7976706797916797e-08  -3.5565999808493834e-07  5.6565363831358620e-08  2.8646344755830979e-08  2.8279686342042509e-09  4.7785405522249037e-08  5.6098097935928914e-08  5.1284160283480754e-08  4.4150048170123685e-06  -4.7954870465052381e-06  1.3308522708980588e-08  2.6387093200613907e-08  -4.3849181915651747e-08  4.3763389810369061e-08  1.0926257631079189e-07  -2.8888137515665553e-08  2.1025295411367411e-07  -1.2701601352479361e-06  1.0196929993504492e-06  1.0891297198248870e-08  6.6757677145347056e-08  1.8004986660307168e-08  -2.0276387402820395e-08  7.8741907640647319e-08  4.3714467190762642e-06  -1.0513205239859442e-05  -2.5940828004189486e-08  -3.4642992140738288e-08  -1.3171441797379854e-08  5.3596183024979281e-08  -1.7470633051014479e-08  -8.5686342510416958e-10  2.4019803620596830e-08  1.9149703944584608e-08  -7.5018067042878916e-11  -1.8941871215851210e-07  8.8284220360723326e-09  -1.8078897785547503e-08  1.6900493938069436e-09  -3.0827669662677816e-07  1.2754365529608196e-09  1.0966660997233310e-08  6.5428625968887747e-09  2.0498105230468832e-09  -7.1581701343549565e-09  5.7693585317744141e-07  4.0686447489804767e-09  3.1614935974762357e-08  8.2479455256439387e-09  -5.8204621460398141e-06  7.6393050290356579e-08  2.2172888300781785e-06  -3.1864114636235442e-07  1.9853677732365908e-08  -5.9379632940023043e-09  1.3248796167927244e-07  -1.4129687004851814e-08  9.4364151700416992e-06  1.5711701679869001e-04  -1.3582479245044487e-06  -3.8204859089741042e-07  6.3593866755090787e-08  2.0421964225490896e-07  4.0827807385093016e-08  2.2216512362638865e-08  -8.6649667899978980e-10  2.6303490546973964e-05  1.1936761330855271e-06  -1.2132219641433923e-08  -3.6564590482567606e-08  3.1959577278773820e-08  1.4449301510569692e-08  -2.3892013385906253e-04  -2.3935311515318046e-08  -2.5485727432949733e-09  2.4081128182544957e-04  4.2423959242081263e-04  -3.2987606624582366e-08  -4.5964438851733169e-04  7.7237685888858467e-09  1.6890977420059363e-08  7.4401198174971393e-08  -1.6407609516487980e-07  -2.3223839271393821e-08  -2.4806751283241811e-08  -9.1870441827048753e-08  -5.2659146818869235e-05  -1.6452932029576385e-08  2.6668497596770608e-07  -5.0639723824707137e-09  -1.4936558619372654e-07  1.0067470180932673e-06  9.7710419099625376e-10  -1.0024337818076017e-07  2.6210515007657244e-08  2.4522557636156710e-07  2.1214225608701910e-08  2.8405207524722731e-08  -2.7532052708638594e-07  -7.1953144000809633e-08  -2.6746944421675818e-08  7.5525575903907167e-09  -1.0138427758471585e-07  -1.3968935469429914e-06  -3.8333494592784423e-08  -4.0712732909509593e-07  -5.9687744540394046e-08  2.5830407896233337e-08  5.8574268850842705e-09  3.7648029790047462e-08  4.1266399436638417e-09  -5.8540437822578104e-08  7.0358496184926615e-08  -