<?xml version="1.0"?>
<VTKFile type="UnstructuredGrid"  version="0.1"  >
<UnstructuredGrid>
<Piece  NumberOfPoints="3160" NumberOfCells="5316">
<Points>
<DataArray  type="Float64"  NumberOfComponents="3"  format="ascii">1.25 0 0  1.249623523370255 0.03067653565364036 0  1.248494320256466 0.06133459290927252 0  1.246613070848363 0.09195570449958429 0  1.243980908340246 0.1225214254119508 0  1.240599418248387 0.1530133439990203 0  1.236470637455976 0.1834130930692022 0  1.231597052986177 0.2137023609503765 0  1.225981600504038 0.2438629025201603 0  1.219627662548161 0.2738765501960873 0  1.21253906649318 0.3037252248790798 0  1.2047200822443 0.333390946843623 0  1.196175419665261 0.3628558465680779 0  1.186910225741296 0.3921021754986144 0  1.176930081478776 0.4211123167402751 0  1.166240998543424 0.4498687956687352 0  1.154849415639108 0.4783542904563622 0  1.142762194629413 0.5065516425062373 0  1.129986616404304 0.5344438667878526 0  1.116530376494394 0.5620141620682582 0  1.102401580435444 0.5892459210324971 0  1.087608738885889 0.61612274028723 0  1.07216076250034 0.642628430241527 0  1.056066956562134 0.6687470248588714 0  1.039337015378182 0.6944627912745027 0  1.02198101643948 0.7197602392723067 0  1.004009414350806 0.7446241306155417 0  0.9854330345332579 0.7690394882257835 0  0.9662630667034212 0.7929916052045569 0  0.9465110581331058 0.8164660536922209 0  0.9261889066936989 0.8394486935587729 0  0.9053088536893338 0.8619256809213336 0  0.8838834764831844 0.8838834764831843 0  0.8619256809213337 0.9053088536893337 0  0.8394486935587729 0.9261889066936989 0  0.8164660536922209 0.9465110581331055 0  0.7929916052045569 0.9662630667034212 0  0.7690394882257835 0.9854330345332578 0  0.7446241306155419 1.004009414350806 0  0.7197602392723067 1.02198101643948 0  0.6944627912745028 1.039337015378182 0  0.6687470248588716 1.056066956562134 0  0.642628430241527 1.07216076250034 0  0.6161227402872301 1.087608738885889 0  0.5892459210324973 1.102401580435444 0  0.5620141620682583 1.116530376494394 0  0.5344438667878527 1.129986616404304 0  0.5065516425062373 1.142762194629413 0  0.4783542904563623 1.154849415639108 0  0.4498687956687353 1.166240998543424 0  0.4211123167402751 1.176930081478776 0  0.3921021754986145 1.186910225741296 0  0.3628558465680779 1.196175419665261 0  0.333390946843623 1.2047200822443 0  0.30372522487908 1.21253906649318 0  0.2738765501960872 1.219627662548161 0  0.2438629025201604 1.225981600504038 0  0.2137023609503767 1.231597052986177 0  0.1834130930692022 1.236470637455976 0  0.1530133439990203 1.240599418248387 0  0.122521425411951 1.243980908340246 0  0.09195570449958432 1.246613070848363 0  0.06133459290927266 1.248494320256466 0  0.03067653565364033 1.249623523370255 0  7.654042494670958e-17 1.25 0  -0.03067653565364018 1.249623523370255 0  -0.06133459290927251 1.248494320256466 0  -0.09195570449958416 1.246613070848363 0  -0.1225214254119508 1.243980908340246 0  -0.1530133439990202 1.240599418248387 0  -0.1834130930692021 1.236470637455976 0  -0.2137023609503766 1.231597052986177 0  -0.2438629025201602 1.225981600504038 0  -0.2738765501960871 1.219627662548161 0  -0.3037252248790798 1.21253906649318 0  -0.3333909468436229 1.2047200822443 0  -0.3628558465680777 1.196175419665261 0  -0.3921021754986143 1.186910225741296 0  -0.4211123167402749 1.176930081478776 0  -0.4498687956687352 1.166240998543424 0  -0.4783542904563621 1.154849415639108 0  -0.5065516425062372 1.142762194629413 0  -0.5344438667878524 1.129986616404304 0  -0.5620141620682584 1.116530376494394 0  -0.5892459210324972 1.102401580435444 0  -0.61612274028723 1.087608738885889 0  -0.642628430241527 1.07216076250034 0  -0.6687470248588713 1.056066956562134 0  -0.6944627912745025 1.039337015378182 0  -0.7197602392723067 1.02198101643948 0  -0.7446241306155417 1.004009414350806 0  -0.7690394882257834 0.9854330345332579 0  -0.7929916052045567 0.9662630667034213 0  -0.8164660536922207 0.9465110581331059 0  -0.8394486935587731 0.9261889066936988 0  -0.8619256809213337 0.9053088536893337 0  -0.8838834764831843 0.8838834764831844 0  -0.9053088536893334 0.8619256809213338 0  -0.9261889066936986 0.8394486935587732 0  -0.9465110581331058 0.8164660536922208 0  -0.9662630667034212 0.7929916052045569 0  -0.9854330345332578 0.7690394882257836 0  -1.004009414350806 0.7446241306155419 0  -1.02198101643948 0.7197602392723068 0  -1.039337015378182 0.6944627912745027 0  -1.056066956562134 0.6687470248588714 0  -1.07216076250034 0.6426284302415273 0  -1.087608738885889 0.6161227402872302 0  -1.102401580435444 0.5892459210324973 0  -1.116530376494394 0.5620141620682586 0  -1.129986616404304 0.5344438667878525 0  -1.142762194629413 0.5065516425062374 0  -1.154849415639108 0.4783542904563624 0  -1.166240998543424 0.4498687956687354 0  -1.176930081478776 0.4211123167402754 0  -1.186910225741296 0.3921021754986143 0  -1.196175419665261 0.362855846568078 0  -1.2047200822443 0.3333909468436231 0  -1.21253906649318 0.3037252248790801 0  -1.219627662548161 0.2738765501960876 0  -1.225981600504038 0.2438629025201608 0  -1.231597052986177 0.2137023609503765 0  -1.236470637455976 0.1834130930692023 0  -1.240599418248387 0.1530133439990204 0  -1.243980908340246 0.122521425411951 0  -1.246613070848363 0.09195570449958466 0  -1.248494320256466 0.06133459290927246 0  -1.249623523370255 0.03067653565364041 0  -1.25 1.530808498934192e-16 0  -1.249623523370255 -0.0306765356536401 0  -1.248494320256466 -0.06133459290927215 0  -1.246613070848363 -0.09195570449958437 0  -1.243980908340246 -0.1225214254119507 0  -1.240599418248387 -0.1530133439990201 0  -1.236470637455976 -0.183413093069202 0  -1.231597052986177 -0.2137023609503762 0  -1.225981600504038 -0.2438629025201605 0  -1.219627662548161 -0.2738765501960873 0  -1.21253906649318 -0.3037252248790798 0  -1.2047200822443 -0.3333909468436228 0  -1.196175419665261 -0.3628558465680776 0  -1.186910225741296 -0.392102175498614 0  -1.176930081478776 -0.4211123167402752 0  -1.166240998543424 -0.4498687956687352 0  -1.154849415639108 -0.4783542904563621 0  -1.142762194629413 -0.5065516425062371 0  -1.129986616404304 -0.5344438667878523 0  -1.116530376494394 -0.5620141620682583 0  -1.102401580435444 -0.5892459210324971 0  -1.087608738885889 -0.6161227402872299 0  -1.07216076250034 -0.6426284302415269 0  -1.056066956562134 -0.6687470248588712 0  -1.039337015378182 -0.6944627912745025 0  -1.02198101643948 -0.7197602392723067 0  -1.004009414350806 -0.7446241306155416 0  -0.9854330345332579 -0.7690394882257834 0  -0.9662630667034213 -0.7929916052045566 0  -0.946511058133106 -0.8164660536922207 0  -0.9261889066936989 -0.8394486935587731 0  -0.9053088536893338 -0.8619256809213336 0  -0.8838834764831847 -0.8838834764831843 0  -0.8619256809213338 -0.9053088536893334 0  -0.8394486935587733 -0.9261889066936986 0  -0.8164660536922214 -0.9465110581331053 0  -0.7929916052045574 -0.9662630667034209 0  -0.7690394882257841 -0.9854330345332574 0  -0.7446241306155414 -1.004009414350806 0  -0.7197602392723066 -1.02198101643948 0  -0.6944627912745027 -1.039337015378182 0  -0.6687470248588716 -1.056066956562134 0  -0.6426284302415273 -1.07216076250034 0  -0.6161227402872302 -1.087608738885889 0  -0.5892459210324973 -1.102401580435444 0  -0.5620141620682586 -1.116530376494394 0  -0.5344438667878531 -1.129986616404304 0  -0.506551642506238 -1.142762194629413 0  -0.4783542904563629 -1.154849415639108 0  -0.4498687956687349 -1.166240998543424 0  -0.4211123167402749 -1.176930081478776 0  -0.3921021754986143 -1.186910225741296 0  -0.3628558465680781 -1.196175419665261 0  -0.3333909468436231 -1.2047200822443 0  -0.3037252248790802 -1.21253906649318 0  -0.2738765501960876 -1.219627662548161 0  -0.2438629025201608 -1.225981600504038 0  -0.2137023609503771 -1.231597052986176 0  -0.1834130930692029 -1.236470637455976 0  -0.1530133439990199 -1.240599418248387 0  -0.1225214254119506 -1.243980908340246 0  -0.09195570449958419 -1.246613070848363 0  -0.06133459290927254 -1.248494320256466 0  -0.03067653565364049 -1.249623523370255 0  -2.296212748401287e-16 -1.25 0  0.03067653565364003 -1.249623523370255 0  0.06133459290927207 -1.248494320256466 0  0.09195570449958373 -1.246613070848363 0  0.1225214254119501 -1.243980908340246 0  0.1530133439990195 -1.240599418248387 0  0.1834130930692024 -1.236470637455976 0  0.2137023609503766 -1.231597052986177 0  0.2438629025201604 -1.225981600504038 0  0.2738765501960872 -1.219627662548161 0  0.3037252248790797 -1.21253906649318 0  0.3333909468436227 -1.2047200822443 0  0.3628558465680776 -1.196175419665261 0  0.3921021754986139 -1.186910225741296 0  0.4211123167402745 -1.176930081478776 0  0.4498687956687345 -1.166240998543424 0  0.4783542904563625 -1.154849415639108 0  0.5065516425062375 -1.142762194629413 0  0.5344438667878527 -1.129986616404304 0  0.5620141620682583 -1.116530376494394 0  0.589245921032497 -1.102401580435444 0  0.6161227402872298 -1.087608738885889 0  0.6426284302415269 -1.07216076250034 0  0.6687470248588712 -1.056066956562134 0  0.6944627912745023 -1.039337015378182 0  0.7197602392723061 -1.02198101643948 0  0.7446241306155411 -1.004009414350806 0  0.7690394882257838 -0.9854330345332576 0  0.792991605204557 -0.9662630667034211 0  0.8164660536922209 -0.9465110581331058 0  0.8394486935587729 -0.9261889066936989 0  0.8619256809213336 -0.9053088536893338 0  0.8838834764831842 -0.8838834764831847 0  0.9053088536893333 -0.8619256809213339 0  0.9261889066936986 -0.8394486935587733 0  0.9465110581331053 -0.8164660536922214 0  0.9662630667034209 -0.7929916052045574 0  0.9854330345332574 -0.7690394882257843 0  1.004009414350806 -0.7446241306155416 0  1.02198101643948 -0.7197602392723066 0  1.039337015378182 -0.6944627912745027 0  1.056066956562134 -0.6687470248588716 0  1.07216076250034 -0.6426284302415274 0  1.087608738885889 -0.6161227402872304 0  1.102401580435443 -0.5892459210324974 0  1.116530376494394 -0.5620141620682587 0  1.129986616404304 -0.5344438667878532 0  1.142762194629413 -0.50655164250623
[...]
<PointData  Scalars="f_6485047"> 
<DataArray  type="Float64"  Name="f_6485047"  format="ascii">-3.1749745856051526e-01  -2.8516975272149825e-01  -2.2785689663901812e-01  -2.0623791367830085e-01  -1.6590482734260859e-01  -1.2413217989378816e-01  -6.3658837362952692e-02  -6.6891424117404234e-03  4.0523110187178378e-02  7.6413407817030890e-02  1.2644482481606753e-01  1.4873442735388381e-01  1.8542944527217112e-01  2.2923534751985764e-01  2.7574868209082370e-01  3.1427210975911885e-01  3.3922536864780117e-01  3.7208462080360843e-01  4.1825890964206069e-01  4.3239809125058859e-01  4.7617610668838001e-01  5.1541905203938976e-01  5.3442571550231233e-01  5.6316727853360748e-01  5.8906680206193351e-01  6.0307662548777896e-01  6.3656750146323393e-01  6.6102355455130346e-01  6.9266140100234108e-01  7.1008404305453110e-01  7.3054544035587510e-01  7.4188784342533232e-01  7.3504477985419636e-01  7.4448697004157005e-01  7.3356588354058783e-01  7.0697617852845718e-01  7.4153719639025018e-01  7.2240573127250995e-01  7.4769835578249533e-01  7.5877654014365747e-01  7.3951999042001115e-01  7.3337532280310780e-01  7.4120236551859808e-01  7.3225983828293628e-01  6.9709656243407303e-01  6.9025380002077230e-01  6.6810266593458578e-01  6.4637553055043984e-01  6.1263823012096086e-01  5.8174296904648037e-01  5.3067923632791525e-01  5.0208603181272349e-01  4.9825473414447008e-01  4.8301848702481714e-01  4.4551187294077838e-01  4.1992775267254506e-01  3.9826196455774915e-01  3.9621525849724759e-01  3.8539431858565071e-01  3.5008753251981750e-01  3.2830942982894695e-01  3.1208036044724835e-01  3.2745306169093752e-01  3.2933041597223484e-01  3.3987185128391151e-01  3.9241079248449773e-01  4.1132560091043441e-01  5.0819539768304345e-01  5.4406079049991030e-01  6.0697798753920751e-01  6.5063670758808556e-01  7.4368245773512986e-01  8.3322440112036478e-01  9.4404996020199849e-01  1.1620968496376274e+00  1.2130466525868764e+00  1.3631439361833582e+00  1.5448224644922184e+00  1.5774681654347309e+00  1.7075544408537098e+00  1.9258504440891115e+00  1.9950594728674276e+00  2.0809958098888566e+00  2.2755031982434573e+00  2.3762059273761391e+00  2.5145503015142938e+00  2.5759761185416106e+00  2.7208208616469305e+00  2.9239493381542703e+00  2.9188526064428468e+00  2.9254362737680211e+00  3.0063648760787594e+00  3.1490690000264410e+00  3.2239139418538025e+00  3.3830303478283761e+00  3.4025761447216927e+00  3.3424959887945485e+00  3.2760354731562953e+00  3.2127455674039442e+00  3.1571038651783407e+00  3.0884169043919751e+00  2.9397218316618967e+00  2.7310695565134737e+00  2.4853659026214614e+00  2.3063643171776627e+00  2.0218193317794610e+00  1.7058467542245055e+00  1.4359021271393366e+00  1.0468387470606748e+00  4.8798976786045767e-01  -1.6386603809681630e-01  -8.1182938855473696e-01  -1.7483295842704152e+00  -2.3582668234465234e+00  -3.2909208122949694e+00  -4.3417540407122601e+00  -5.3199286459226860e+00  -6.3084217215795180e+00  -7.5417887327866753e+00  -8.6887284595395506e+00  -9.6677822649216996e+00  -1.0755457618358578e+01  -1.1734183367187464e+01  -1.2780530987881997e+01  -1.3745369050099690e+01  -1.4538494054888362e+01  -1.5252384182549855e+01  -1.5888369754219717e+01  -1.6281556095299639e+01  -1.6802718913371155e+01  -1.7175694513389711e+01  -1.7310409525030906e+01  -1.7336455751554261e+01  -1.7362115033267155e+01  -1.7184887554403041e+01  -1.6812460515992200e+01  -1.6298767556147705e+01  -1.5693151728618263e+01  -1.4965543885008465e+01  -1.4219225936583232e+01  -1.3330681094609352e+01  -1.2447067389502561e+01  -1.1760899501193327e+01  -1.1020475374475099e+01  -1.0160509241843211e+01  -9.5529519986724711e+00  -8.7898106998032723e+00  -8.0718429461669796e+00  -7.3937183193245319e+00  -6.9211034522426900e+00  -6.5405554606732723e+00  -6.0354516783559040e+00  -5.5085388416964731e+00  -5.0473782418124244e+00  -4.5091804039736099e+00  -4.0164302683366992e+00  -3.6570937533212104e+00  -3.1711825454500318e+00  -2.7454230448412429e+00  -2.3811846944816168e+00  -1.9822887357311019e+00  -1.6672765846217774e+00  -1.2936656056454050e+00  -1.0119455975219620e+00  -7.2670118986804355e-01  -4.4823625525726618e-01  -1.4057325443437377e-01  7.4489144938640145e-02  3.1793696497934670e-01  4.5004677430534756e-01  5.5254346641983987e-01  6.8838118951356964e-01  7.9535940489591117e-01  8.7961330006284466e-01  9.8914460379754177e-01  1.0695561860370573e+00  1.1010057979025469e+00  1.1548902658304927e+00  1.1867800259929713e+00  1.2076373767652850e+00  1.2044064199802476e+00  1.1761730050651831e+00  1.2050726197777279e+00  1.1694697354254271e+00  1.2052417966190245e+00  1.1388369582208460e+00  1.1039941099722903e+00  1.0927974990446334e+00  1.0331864512069113e+00  1.0000354018569821e+00  9.2980879335706279e-01  9.3605130468381814e-01  8.0148502640691133e-01  7.3782154647273035e-01  6.4813338853324065e-01  5.8114709109218521e-01  5.2475360919144431e-01  4.6059771180932252e-01  3.8785136697387190e-01  3.0527163576963529e-01  2.4102259675556936e-01  1.3513292023002818e-01  6.0266537305011719e-02  -2.8465791815702315e-02  -7.2436226933727227e-02  -1.1718274926515770e-01  -2.0042226716525188e-01  -2.3272987576285370e-01  -3.1822444188249727e-01  -3.5926556508429480e-01  -3.8625535520065046e-01  -3.9442134094391706e-01  -4.9606079997864644e-01  -5.3177912567217434e-01  -5.6349090806077973e-01  -5.9667110241188370e-01  -6.5747869681212823e-01  -6.4224650459251720e-01  -6.7115762398370615e-01  -7.1188058104040930e-01  -7.3233250640938030e-01  -8.1697890568445586e-01  -8.4118007443938658e-01  -8.4590919927085118e-01  -8.5918513004458497e-01  -8.9349450097381866e-01  -9.1573545114042043e-01  -9.2242314583811025e-01  -9.2700817412616321e-01  -9.4243009494161556e-01  -9.7524176337695334e-01  -9.7300261901290530e-01  -9.6515253734244466e-01  -9.7443691421432699e-01  -9.5549372928555509e-01  -9.4607872195924769e-01  -9.1343472426572747e-01  -9.2109510555973984e-01  -8.9807212266485059e-01  -8.8412106749692121e-01  -8.3387219492647169e-01  -8.4239799762957890e-01  -8.2191375446322057e-01  -7.9696214364507068e-01  -7.6173479470305161e-01  -7.4105682363713588e-01  -7.3089415801974511e-01  -6.8984424066330197e-01  -6.8459488446586625e-01  -6.5555303237095508e-01  -5.9042599179495625e-01  -5.6053361594541873e-01  -5.0299073924869431e-01  -4.7204836372346726e-01  -4.2002471199203240e-01  -3.6524483020520809e-01  -3.9297261612918750e+00  -3.7937364172606629e+00  -3.6770011871155370e+00  -3.5786093471784257e+00  -3.4709312761710129e+00  -3.3230821889928346e+00  -3.1584794714174471e+00  -2.9631920869027293e+00  -2.7840350732949553e+00  -2.5757146056555222e+00  -2.4074516415271630e+00  -2.2297105306734131e+00  -2.0334600612123523e+00  -1.8520747628432155e+00  -1.6655508140559772e+00  -1.4573954421181077e+00  -1.2439814730025238e+00  -1.0261599565716240e+00  -8.0700340683818561e-01  -5.6989539469334383e-01  -3.4671706932664292e-01  -1.1026921479290018e-01  1.5270150462313892e-01  4.1755280760062069e-01  6.3067765970099432e-01  8.6281547366802192e-01  1.0687916498592764e+00  1.2878691872044092e+00  1.5313448395267699e+00  1.7287257071815592e+00  1.9535425123255823e+00  2.1465856020230487e+00  2.3470752204971856e+00  2.5098055438504021e+00  2.7285735798333284e+00  2.9052167459108786e+00  2.9973085448007590e+00  3.1733014677217195e+00  3.4199519702811081e+00  3.6089247326081777e+00  3.7415111532500118e+00  3.8753783798235544e+00  4.0229574258436793e+00  4.1094875164231519e+00  4.2375260762093472e+00  4.3981251253735829e+00  4.4555778610316752e+00  4.5537211730022822e+00  4.5929263383680858e+00  4.5618711924522355e+00  4.5957015486835617e+00  4.6661457719671846e+00  4.6892060844338088e+00  4.7008409878579887e+00  4.6598424125924076e+00  4.6382117208807001e+00  4.6097139001963283e+00  4.5341534655133806e+00  4.4758716141302362e+00  4.4142899285481327e+00  4.3440526330832760e+00  4.3298098019238802e+00  4.3329773557030569e+00  4.2039342475799621e+00  4.0794141562705324e+00  3.8889071526051779e+00  3.8596658041980270e+00  3.7971482047689173e+00  3.5248713229312836e+00  3.3087117707052158e+00  3.1849836528404145e+00  3.0546361730745986e+00  2.9225160804600172e+00  2.7331900929168857e+00  2.5764869939087167e+00  2.4161062140307483e+00  2.1855128007141045e+00  2.0373552657502509e+00  1.8747045760318466e+00  1.6573666951237009e+00  1.3750246001646664e+00  1.1490975734393210e+00  8.5026291778225738e-01  5.8365257731212694e-01  2.4819447777347908e-01  -9.1313139432595392e-02  -4.0869895272672635e-01  -7.2712901305636213e-01  -1.0056464294470699e+00  -1.3705842921077753e+00  -1.7891048959876077e+00  -2.1416601452264796e+00  -2.5134542000128461e+00  -2.9130582990551179e+00  -3.2743207024541610e+00  -3.5722347201778288e+00  -4.0145154464030819e+00  -4.3866831442580017e+00  -4.8304036867657540e+00  -5.1368648354719690e+00  -5.6186652779504769e+00  -6.0381745853745716e+00  -6.4292799555052280e+00  -6.8387127094666109e+00  -7.3137259017870422e+00  -7.7367243668239567e+00  -8.1611630830059791e+00  -8.5464649084048130e+00  -9.1061664311030004e+00  -9.5681940534247545e+00  -1.0218469249511124e+01  -1.0867132805616102e+01  -1.1492050639323173e+01  -1.1983885834400390e+01  -1.2514346737656879e+01  -1.3070796605078650e+01  -1.3707046973297432e+01  -1.4160099512183285e+01  -1.4710638781155774e+01  -1.5128502830943727e+01  -1.5511103830359037e+01  -1.5916906521143451e+01  -1.6126605460636913e+01  -1.6231274989752784e+01  -1.6245601552768363e+01  -1.6173316625913962e+01  -1.6071226743411497e+01  -1.5743808251754714e+01  -1.5515037902195786e+01  -1.5124325586500985e+01  -1.4648699496019766e+01  -1.4218742285784385e+01  -1.3716499472614171e+01  -1.3029339268300744e+01  -1.2295202205299578e+01  -1.1563563166949432e+01  -1.0815383978903528e+01  -1.0069498674690475e+01  -9.3037461590511299e+00  -8.5096469624331377e+00  -7.6326184165803426e+00  -6.7378906925510211e+00  -5.9538147146974847e+00  -5.1771033273838736e+00  -4.3473725438927726e+00  -3.3951174304360605e+00  -2.8893826701908885e+00  -2.0005596307993176e+00  -1.3970974151584870e+00  -6.8294153170260330e-01  3.0821099692523213e-02  3.3548743033534456e-01  7.2193822250987827e-01  1.1412895376999348e+00  1.5691134708626584e+00  1.9399109034724238e+00  2.1660098445937903e+00  2.5355680687266720e+00  2.6911923066304744e+00  3.0046900219995405e+00  3.2997078082534332e+00  3.5463155108040678e+00  3.7793111977461669e+00  3.9759996207511801e+00  4.1655411409028771e+00  4.3598694333243184e+00  4.4301500195035377e+00  4.5704397664583318e+00  4.7257846705017847e+00  4.8419581960427722e+00  4.9624686930307842e+00  5.0367580940957346e+00  5.0861253050078430e+00  5.1035639460685083e+00  5.0771212302814819e+00  5.1190824285607510e+00  5.2194491731779769e+00  5.3179129948329811e+00  5.1751982239351388e+00  5.1124068568728180e+00  5.2122205566525963e+00  5.0890968843572679e+00  4.8925623838942665e+00  4.8236964959675985e+00  4.8299253406239329e+00  4.7017775885091311e+00  4.6379183234616725e+00  4.5536289714627083e+00  4.5056316356800554e+00  4.4192911397518122e+00  4.3415386959976097e+00  4.2518064258176009e+00  4.1297515429647564e+00  4.0233751748640278e+00  3.8706020601862678e+00  3.6184820588285449e+00  3.5073314572973522e+00  3.3512968184860816e+00  3.2122100981686299e+00  3.0113529546482845e+00  2.8076849275388613e+00  2.6378120910367220e+00  2.4922575454577047e+00  2.3481099548902211e+00  2.1417391161207227e+00  1.9505349438945307e+00  1.7361238358147908e+00  1.5549463779622579e+00  1.3594392733233751e+00  1.1595228688673147e+00  9.3959518722184998e-01  7.0903613221268991e-01  4.5440147993041635e-01  2.1441368352735035e-01  3.1938291047944618e-04  -2.2480708740922387e-01  -4.9191494499348154e-01  -7.3368688270492799e-01  -9.5544696502970583e-01  -1.1600663557870570e+00  -1.3678626944941912e+00  -1.6222540317080822e+00  -1.8170318273376198e+00  -2.0151351936921795e+00  -2.2075892160213861e+00  -2.4215654801440545e+00  -2.5869186276223033e+00  -2.7534347954004521e+00  -2.9769628032433637e+00  -3.1226010774267037e+00  -3.2145877665845322e+00  -3.3948192318366019e+00  -3.5102390061415334e+00  -3.6454333403950745e+00  -3.7809968102420273e+00  -3.9159733578310982e+00  -3.9582377194848881e+00  -4.0190838667397735e+00  -4.1194493240798300e+00  -4.2106894934780783e+00  -4.3215712723252357e+00  -4.3028793184543508e+00  -4.3565680884068838e+00  -4.3477181171622332e+00  -4.3646756441544330e+00  -4.3709557176068961e+00  -4.4434318860462385e+00  -4.4721494962586421e+00  -4.4631902223985351e+00  -4.4331898667198901e+00  -4.3462697881901384e+00  -4.2972350741547398e+00  -4.2729917678695868e+00  -4.1941988590912151e+00  -4.0961960493061591e+00  -4.0056241168268860e+00  -5.9552750266705867e-01  -9.1457879920277796e-01  -3.0234877842898922e-01  -1.0885796971230801e+00  6.3105584709276755e-02  -1.0629075675074791e+00  4.2266742032611837e-01  -9.5608175501730630e-01  8.8217263946700830e-01  -7.0811883698709399e-01  1.2344317794300514e+00  -3.2942367004264483e-01  1.5781886599307453e+00  1.0182413312020831e-01  1.9298434231644346e+00  6.0130120494508410e-01  2.0058841620631176e+00  1.1296705711362958e+00  -7.3095412800801965e-02  2.1750264121810283e+00  -1.6584956756950475e-03  -1.1966760605540468e-01  -1.9906476493146193e-02  -1.8623025679573346e+00  -5.9770056032032981e-01  -1.3298868926654206e+00  -2.1507644499839214e+00  1.7131989859288590e+00  -4.3614102956337268e-02  -1.7712096624700355e-01  -2.2364907818135626e+00  2.1310930954026230e+00  1.8681932983438160e-01  -2.9616408541992789e-01  6.7565986632664068e-02  -2.0036081235558072e+00  9.7001628000919493e-01  8.2336416902547380e-02  2.1712527242111976e+00  1.4191981409173951e-01  -6.7050139433011705e-02  -1.9783955561916469e+00  -2.6001469018496010e-01  3.1749558316271087e-01  9.2077615192380891e-02  -1.4729220479550422e+00  1.6390225970413195e+00  1.9383546479498683e+00  -1.2538860372738905e-01  3.4698211974320721e-02  -1.8260883387231841e-01  2.5958190057792305e+00  5.7464279413984320e-01  -1.1177250713634271e-01  -3.8726864001122935e-01  -1.1063387352461198e+00  1.7060764807939837e+00  2.4040597210754470e-02  -5.9440060250939543e-02  1.3845869863970861e+00  -9.5444661264350339e-01  -2.1772577084291829e+00  -2.3469956306641935e+00  2.3322595296606425e+00  -2.3454586514475939e+00  -2.1023514760599911e+00  -5.8933170237712902e-04  8.0674218799915054e-01  3.1463272372815339e+00  1.7686234398505696e-02  1.4193350675544973e+00  5.2510889844762754e-01  -1.0525435618793878e-01  2.6714962332822676e+00  1.4180626468420202e-01  2.2093169137425503e+00  3.4461219373858762e+00  -9.7106456739625147e-01  -4.4894427050415703e-01  6.5943139321224087e-02  2.0295747325300423e-01  1.2783923435742806e+00  -5.0700626631059864e-01  3.7924658251959431e-01  -8.2879764258122124e-01  9.7585165444466027e-01  3.0849222239612795e+00  7.5790562158269492e-01  -1.1630776156135800e+00  5.3864627331756643e-01  -1.4220478915539034e+00  2.1699131451517636e-01  2.8888563524337987e+00  -2.0072000627047823e-01  3.7206470603221056e+00  1.0051050984944779e-01  7.6675270290197861e-01  5.7971895758911440e-01  1.3526825648043814e+00  -1.0490838711953794e+00  5.0042338654558571e-01  7.7015542064546777e-02  2.4807255390818925e-01  -2.0577362203664254e-02  1.5735546806572795e+00  -2.7424317362112244e-01  -1.3252327130903330e-01  -2.7550239462184511e-01  3.1116814368906898e+00  2.6332895847182530e-01  -5.5489032527685400e-01  -1.0954752623009887e+00  1.3072267602166651e-01  3.9059551254238158e+00  5.0766096709138475e-01  -3.5678277330065666e-01  -1.3173515931849755e+00  3.3454708795743071e-01  2.8073918362681866e-01  3.3295327139321960e+00  2.2212617358162499e+00  9.3330929711105270e-01  -2.2208758857013972e-01  -1.4546739420911770e+00  2.6830710658581169e-01  3.1441765117432969e+00  -2.6839734235371643e-01  -2.8270684585029887e-01  -4.6354022700791329e-02  -9.1213972335365512e-01  -3.1076402173353364e+00  1.3562434908194219e+00  -3.1549032815858004e-04  1.1777334176673795e+00  -2.9229088031261035e+00  3.1222693522888463e+00  -2.4487031707140363e+00  -2.0474115213639594e+00  4.0767163166047524e+00  1.5759617813628979e+00  -4.1940505388746757e-01  -4.0505651705957546e-01  -3.9361231564734495e-01  2.0881310564303021e-01  -3.2329000759847109e+00  -3.2432754366888523e+00  -2.5054091467345946e-01  -2.1214426357976135e-01  -5.7024119547643204e-01  1.3258658598529400e+00  -4.1438180125198554e-01  2.8112319778605238e-01  -2.9830820858872825e-02  9.7803547182575945e-01  -5.3426589761439391e-01  -3.4225871351574361e-01  -1.0519492643331518e+00  1.9999449152263474e-01  -3.7183573845204232e-01  -4.2685159075145912e-01  7.7247830370827830e-02  6.1483184801106205e-01  1.2403695601472546e+00  1.2283359726300789e+00  1.0805168599284578e+00  -1.5769880372317038e+00  -3.1402263610651713e+00  -3.1606818732358728e+00  1.3527247401590844e-01  -8.4459193595516846e-01  7.5470485676970761e-02  -1.1181701952307481e+00  -1.8218921498520294e-01  1.5616589226936199e+00  -9.4850158726606282e-01  2.7325574030359143e+00  2.7586755908638227e-01  -8.1102238145254935e-01  4.3367071983856842e-01  1.9943903672873773e+00  -2.2526691120252185e-01  -2.4645444510913200e-01  1.3387218750636733e+00  -2.7180371601184228e+00  -2.8454846352737606e+00  5.3248638513550794e-01  -1.4698115710897552e+00  1.2417439224869564e+00  8.2375877424266131e-01  2.8614109996526702e+00  3.9974897901278683e+00  1.8346809247555658e+00  2.7708720191117198e-01  7.3138718205610825e-02  -1.5608662300359872e+00  -6.3166038295854687e-01  -1.9307477092070030e-01  1.3011605803212449e+00  -5.8193288739706617e-01  9.8063007731086571e-01  -3.3491865601274632e-03  -1.6625636333028071e+00  -2.1381608256820197e+00  -1.8203155648865346e+00  1.6842967670929394e+00  -1.7223695518087685e+00  3.1404593960968556e-02  7.0521958118226014e-01  3.0510120076185510e-01  3.6611171958760858e-01  3.3115744038343462e+00  2.2905678702187142e+00  2.7584985755022456e-01  2.8392192139042788e-01  -2.3297808353582775e-01  1.4555603801629300e+00  1.9967534466299706e+00  -1.5090154414443258e+00  -5.0043003092195748e-01  3.8976120978593687e+00  -1.4202901745987371e+00  -2.8273039558174527e-02  2.0931821544344980e-03  2.3454758330333059e+00  2.2302555935596305e-01  -4.5009244295767914e-02  3.3176058147429816e-01  -1.8590510740050468e+00  -1.9243324438896698e+00  2.4278415740488293e+00  1.4250654022717406e+00  -1.8255618883050180e+00  -3.4249700032055310e+00  -3.8951043741653607e-01  6.8707206481773009e-01  -2.6340783533732559e-01  1.2940381113404900e+00  7.3135004951462423e-01  1.3808882601533095e+00  -2.6677284390985432e+00  3.6251787868152410e+00  -5.4699499389825945e-01  -3.1471851147512164e+00  3.5604450901577978e-01  -2.9884266449413670e+00  -8.5684644071872029e-01  3.1430343596839232e+00  -7.8148401636410503e-01  2.0757454789960281e+00  -3.5268230222118219e-01  3.0243740870225326e+00  8.3145550904596699e-01  3.5899526548532958e+00  6.2439939592307347e-01  -5.2183004523966792e-01  1.1722139026360388e+00  -2.3648724640870322e-01  -3.3246450379024815e-02  1.4903176509836069e+00  2.8163389908184344e+00  3.4933100158834074e-01  2.2014934857454083e-01  2.3339932504272767e-01  2.4322225387244220e-01  -3.5696591144708010e+00  3.0127439131446143e-01  3.6650078348031783e+00  2.1557967823094693e+00  3.1106159728368250e+00  -8.1345730899800883e-01  -1.2325437338967145e+00  2.0369900562383476e+00  1.7463241461159376e+00  3.2439135846895573e-01  1.7726228493034837e+00  -7.5958701624607428e-01  1.5300858688709491e+00  1.1769530072203377e-01  2.3512874826054095e+00  1.0399084945232735e+00  2.5164906343733948e+00  4.3919369786582796e-01  -5.3847493653157685e-01  2.8857085124540189e+00  -1.2428407121432117e-01  -5.9997847307786345e-01  -1.0353928078607924e+00  3.2606541664535063e+00  1.8699785243664444e+00  1.3345638469668351e+00  2.1719940996740656e+00  1.8951890075257682e+00  2.5253931880649644e-01  -3.8041252940660869e-01  3.2565738337323924e+00  4.3797699837203696e-01  2.0804584057633351e+00  2.1019694661712968e-01  -3.2484113785470621e+00  1.7741642567681746e+00  2.2177885457898396e+00  2.26409781273