<?xml version="1.0"?>
<VTKFile type="UnstructuredGrid"  version="0.1"  >
<UnstructuredGrid>
<Piece  NumberOfPoints="3160" NumberOfCells="5316">
<Points>
<DataArray  type="Float64"  NumberOfComponents="3"  format="ascii">1.25 0 0  1.249623523370255 0.03067653565364036 0  1.248494320256466 0.06133459290927252 0  1.246613070848363 0.09195570449958429 0  1.243980908340246 0.1225214254119508 0  1.240599418248387 0.1530133439990203 0  1.236470637455976 0.1834130930692022 0  1.231597052986177 0.2137023609503765 0  1.225981600504038 0.2438629025201603 0  1.219627662548161 0.2738765501960873 0  1.21253906649318 0.3037252248790798 0  1.2047200822443 0.333390946843623 0  1.196175419665261 0.3628558465680779 0  1.186910225741296 0.3921021754986144 0  1.176930081478776 0.4211123167402751 0  1.166240998543424 0.4498687956687352 0  1.154849415639108 0.4783542904563622 0  1.142762194629413 0.5065516425062373 0  1.129986616404304 0.5344438667878526 0  1.116530376494394 0.5620141620682582 0  1.102401580435444 0.5892459210324971 0  1.087608738885889 0.61612274028723 0  1.07216076250034 0.642628430241527 0  1.056066956562134 0.6687470248588714 0  1.039337015378182 0.6944627912745027 0  1.02198101643948 0.7197602392723067 0  1.004009414350806 0.7446241306155417 0  0.9854330345332579 0.7690394882257835 0  0.9662630667034212 0.7929916052045569 0  0.9465110581331058 0.8164660536922209 0  0.9261889066936989 0.8394486935587729 0  0.9053088536893338 0.8619256809213336 0  0.8838834764831844 0.8838834764831843 0  0.8619256809213337 0.9053088536893337 0  0.8394486935587729 0.9261889066936989 0  0.8164660536922209 0.9465110581331055 0  0.7929916052045569 0.9662630667034212 0  0.7690394882257835 0.9854330345332578 0  0.7446241306155419 1.004009414350806 0  0.7197602392723067 1.02198101643948 0  0.6944627912745028 1.039337015378182 0  0.6687470248588716 1.056066956562134 0  0.642628430241527 1.07216076250034 0  0.6161227402872301 1.087608738885889 0  0.5892459210324973 1.102401580435444 0  0.5620141620682583 1.116530376494394 0  0.5344438667878527 1.129986616404304 0  0.5065516425062373 1.142762194629413 0  0.4783542904563623 1.154849415639108 0  0.4498687956687353 1.166240998543424 0  0.4211123167402751 1.176930081478776 0  0.3921021754986145 1.186910225741296 0  0.3628558465680779 1.196175419665261 0  0.333390946843623 1.2047200822443 0  0.30372522487908 1.21253906649318 0  0.2738765501960872 1.219627662548161 0  0.2438629025201604 1.225981600504038 0  0.2137023609503767 1.231597052986177 0  0.1834130930692022 1.236470637455976 0  0.1530133439990203 1.240599418248387 0  0.122521425411951 1.243980908340246 0  0.09195570449958432 1.246613070848363 0  0.06133459290927266 1.248494320256466 0  0.03067653565364033 1.249623523370255 0  7.654042494670958e-17 1.25 0  -0.03067653565364018 1.249623523370255 0  -0.06133459290927251 1.248494320256466 0  -0.09195570449958416 1.246613070848363 0  -0.1225214254119508 1.243980908340246 0  -0.1530133439990202 1.240599418248387 0  -0.1834130930692021 1.236470637455976 0  -0.2137023609503766 1.231597052986177 0  -0.2438629025201602 1.225981600504038 0  -0.2738765501960871 1.219627662548161 0  -0.3037252248790798 1.21253906649318 0  -0.3333909468436229 1.2047200822443 0  -0.3628558465680777 1.196175419665261 0  -0.3921021754986143 1.186910225741296 0  -0.4211123167402749 1.176930081478776 0  -0.4498687956687352 1.166240998543424 0  -0.4783542904563621 1.154849415639108 0  -0.5065516425062372 1.142762194629413 0  -0.5344438667878524 1.129986616404304 0  -0.5620141620682584 1.116530376494394 0  -0.5892459210324972 1.102401580435444 0  -0.61612274028723 1.087608738885889 0  -0.642628430241527 1.07216076250034 0  -0.6687470248588713 1.056066956562134 0  -0.6944627912745025 1.039337015378182 0  -0.7197602392723067 1.02198101643948 0  -0.7446241306155417 1.004009414350806 0  -0.7690394882257834 0.9854330345332579 0  -0.7929916052045567 0.9662630667034213 0  -0.8164660536922207 0.9465110581331059 0  -0.8394486935587731 0.9261889066936988 0  -0.8619256809213337 0.9053088536893337 0  -0.8838834764831843 0.8838834764831844 0  -0.9053088536893334 0.8619256809213338 0  -0.9261889066936986 0.8394486935587732 0  -0.9465110581331058 0.8164660536922208 0  -0.9662630667034212 0.7929916052045569 0  -0.9854330345332578 0.7690394882257836 0  -1.004009414350806 0.7446241306155419 0  -1.02198101643948 0.7197602392723068 0  -1.039337015378182 0.6944627912745027 0  -1.056066956562134 0.6687470248588714 0  -1.07216076250034 0.6426284302415273 0  -1.087608738885889 0.6161227402872302 0  -1.102401580435444 0.5892459210324973 0  -1.116530376494394 0.5620141620682586 0  -1.129986616404304 0.5344438667878525 0  -1.142762194629413 0.5065516425062374 0  -1.154849415639108 0.4783542904563624 0  -1.166240998543424 0.4498687956687354 0  -1.176930081478776 0.4211123167402754 0  -1.186910225741296 0.3921021754986143 0  -1.196175419665261 0.362855846568078 0  -1.2047200822443 0.3333909468436231 0  -1.21253906649318 0.3037252248790801 0  -1.219627662548161 0.2738765501960876 0  -1.225981600504038 0.2438629025201608 0  -1.231597052986177 0.2137023609503765 0  -1.236470637455976 0.1834130930692023 0  -1.240599418248387 0.1530133439990204 0  -1.243980908340246 0.122521425411951 0  -1.246613070848363 0.09195570449958466 0  -1.248494320256466 0.06133459290927246 0  -1.249623523370255 0.03067653565364041 0  -1.25 1.530808498934192e-16 0  -1.249623523370255 -0.0306765356536401 0  -1.248494320256466 -0.06133459290927215 0  -1.246613070848363 -0.09195570449958437 0  -1.243980908340246 -0.1225214254119507 0  -1.240599418248387 -0.1530133439990201 0  -1.236470637455976 -0.183413093069202 0  -1.231597052986177 -0.2137023609503762 0  -1.225981600504038 -0.2438629025201605 0  -1.219627662548161 -0.2738765501960873 0  -1.21253906649318 -0.3037252248790798 0  -1.2047200822443 -0.3333909468436228 0  -1.196175419665261 -0.3628558465680776 0  -1.186910225741296 -0.392102175498614 0  -1.176930081478776 -0.4211123167402752 0  -1.166240998543424 -0.4498687956687352 0  -1.154849415639108 -0.4783542904563621 0  -1.142762194629413 -0.5065516425062371 0  -1.129986616404304 -0.5344438667878523 0  -1.116530376494394 -0.5620141620682583 0  -1.102401580435444 -0.5892459210324971 0  -1.087608738885889 -0.6161227402872299 0  -1.07216076250034 -0.6426284302415269 0  -1.056066956562134 -0.6687470248588712 0  -1.039337015378182 -0.6944627912745025 0  -1.02198101643948 -0.7197602392723067 0  -1.004009414350806 -0.7446241306155416 0  -0.9854330345332579 -0.7690394882257834 0  -0.9662630667034213 -0.7929916052045566 0  -0.946511058133106 -0.8164660536922207 0  -0.9261889066936989 -0.8394486935587731 0  -0.9053088536893338 -0.8619256809213336 0  -0.8838834764831847 -0.8838834764831843 0  -0.8619256809213338 -0.9053088536893334 0  -0.8394486935587733 -0.9261889066936986 0  -0.8164660536922214 -0.9465110581331053 0  -0.7929916052045574 -0.9662630667034209 0  -0.7690394882257841 -0.9854330345332574 0  -0.7446241306155414 -1.004009414350806 0  -0.7197602392723066 -1.02198101643948 0  -0.6944627912745027 -1.039337015378182 0  -0.6687470248588716 -1.056066956562134 0  -0.6426284302415273 -1.07216076250034 0  -0.6161227402872302 -1.087608738885889 0  -0.5892459210324973 -1.102401580435444 0  -0.5620141620682586 -1.116530376494394 0  -0.5344438667878531 -1.129986616404304 0  -0.506551642506238 -1.142762194629413 0  -0.4783542904563629 -1.154849415639108 0  -0.4498687956687349 -1.166240998543424 0  -0.4211123167402749 -1.176930081478776 0  -0.3921021754986143 -1.186910225741296 0  -0.3628558465680781 -1.196175419665261 0  -0.3333909468436231 -1.2047200822443 0  -0.3037252248790802 -1.21253906649318 0  -0.2738765501960876 -1.219627662548161 0  -0.2438629025201608 -1.225981600504038 0  -0.2137023609503771 -1.231597052986176 0  -0.1834130930692029 -1.236470637455976 0  -0.1530133439990199 -1.240599418248387 0  -0.1225214254119506 -1.243980908340246 0  -0.09195570449958419 -1.246613070848363 0  -0.06133459290927254 -1.248494320256466 0  -0.03067653565364049 -1.249623523370255 0  -2.296212748401287e-16 -1.25 0  0.03067653565364003 -1.249623523370255 0  0.06133459290927207 -1.248494320256466 0  0.09195570449958373 -1.246613070848363 0  0.1225214254119501 -1.243980908340246 0  0.1530133439990195 -1.240599418248387 0  0.1834130930692024 -1.236470637455976 0  0.2137023609503766 -1.231597052986177 0  0.2438629025201604 -1.225981600504038 0  0.2738765501960872 -1.219627662548161 0  0.3037252248790797 -1.21253906649318 0  0.3333909468436227 -1.2047200822443 0  0.3628558465680776 -1.196175419665261 0  0.3921021754986139 -1.186910225741296 0  0.4211123167402745 -1.176930081478776 0  0.4498687956687345 -1.166240998543424 0  0.4783542904563625 -1.154849415639108 0  0.5065516425062375 -1.142762194629413 0  0.5344438667878527 -1.129986616404304 0  0.5620141620682583 -1.116530376494394 0  0.589245921032497 -1.102401580435444 0  0.6161227402872298 -1.087608738885889 0  0.6426284302415269 -1.07216076250034 0  0.6687470248588712 -1.056066956562134 0  0.6944627912745023 -1.039337015378182 0  0.7197602392723061 -1.02198101643948 0  0.7446241306155411 -1.004009414350806 0  0.7690394882257838 -0.9854330345332576 0  0.792991605204557 -0.9662630667034211 0  0.8164660536922209 -0.9465110581331058 0  0.8394486935587729 -0.9261889066936989 0  0.8619256809213336 -0.9053088536893338 0  0.8838834764831842 -0.8838834764831847 0  0.9053088536893333 -0.8619256809213339 0  0.9261889066936986 -0.8394486935587733 0  0.9465110581331053 -0.8164660536922214 0  0.9662630667034209 -0.7929916052045574 0  0.9854330345332574 -0.7690394882257843 0  1.004009414350806 -0.7446241306155416 0  1.02198101643948 -0.7197602392723066 0  1.039337015378182 -0.6944627912745027 0  1.056066956562134 -0.6687470248588716 0  1.07216076250034 -0.6426284302415274 0  1.087608738885889 -0.6161227402872304 0  1.102401580435443 -0.5892459210324974 0  1.116530376494394 -0.5620141620682587 0  1.129986616404304 -0.5344438667878532 0  1.142762194629413 -0.50655164250623
[...]
<PointData  Scalars="f_6485002"> 
<DataArray  type="Float64"  Name="f_6485002"  format="ascii">1.0028199359603436e+00  1.0168404364035610e+00  1.0454270304353392e+00  1.0597296234201736e+00  1.0859290415246057e+00  1.1044248684099411e+00  1.1345644024822301e+00  1.1564416303014062e+00  1.1707978544199851e+00  1.1838453916365512e+00  1.2024011567886037e+00  1.2104811702098657e+00  1.2312964414714556e+00  1.2542165364136011e+00  1.2755389983024246e+00  1.2910239206828935e+00  1.3010739866655017e+00  1.3187803622230903e+00  1.3448476238338070e+00  1.3471526912007614e+00  1.3693635968815498e+00  1.3831769797324227e+00  1.3941156571633329e+00  1.4060995395856917e+00  1.4213927813225562e+00  1.4258728874145510e+00  1.4447895772630426e+00  1.4642418708741118e+00  1.4815235029284421e+00  1.4885678049108666e+00  1.5000646243236140e+00  1.5029670686437555e+00  1.4961933872255637e+00  1.4920378709931059e+00  1.4816676802214181e+00  1.4739810875202406e+00  1.4838864068499700e+00  1.4825359928914688e+00  1.4897888020462799e+00  1.4982102025218564e+00  1.4968297803370341e+00  1.4966933697253444e+00  1.4953416207797652e+00  1.4904615047475278e+00  1.4805360569996751e+00  1.4697271715745062e+00  1.4582463374266381e+00  1.4544517419064222e+00  1.4488491547166700e+00  1.4322122080143240e+00  1.4128154529757473e+00  1.4047025411511156e+00  1.3964641600831764e+00  1.3953538353103134e+00  1.3829914623615289e+00  1.3676114499552128e+00  1.3703800891023799e+00  1.3765739306275249e+00  1.3900799393527283e+00  1.3976956886567580e+00  1.4008192596624298e+00  1.4075394340348348e+00  1.4358042455406423e+00  1.4498061581576842e+00  1.4657270781695937e+00  1.5234948065484128e+00  1.5418223344720468e+00  1.6402423312582257e+00  1.6774488604657589e+00  1.7396278270926770e+00  1.7754492854878290e+00  1.8512930692743090e+00  1.9204677718374752e+00  2.0114149048849601e+00  2.1909399099197584e+00  2.2289174730625931e+00  2.3557630419291193e+00  2.5071524489428314e+00  2.5323515572748341e+00  2.6426594926653864e+00  2.8306275473252840e+00  2.8916946350350687e+00  2.9695170527025310e+00  3.1461231133047596e+00  3.2400558932883432e+00  3.3733823584712939e+00  3.4528371835395109e+00  3.6014522596702916e+00  3.8072280458152066e+00  3.8302345776062863e+00  3.8876127955031805e+00  4.0247415993065951e+00  4.2355887323121619e+00  4.4098953267098304e+00  4.6763403216999668e+00  4.7705931787530362e+00  4.8601753612946919e+00  4.9652381918250530e+00  5.1723719384984710e+00  5.3347338027176177e+00  5.4821531139560697e+00  5.5487211408986115e+00  5.6654180656037134e+00  5.7846144865544558e+00  5.8643953830173450e+00  5.9262045908108458e+00  5.9898315269802023e+00  6.0292339825022472e+00  6.0573697483783313e+00  6.0343216808711304e+00  6.0362984215543971e+00  5.9871281514404728e+00  5.8817786128756975e+00  5.8029507980246189e+00  5.6586810106518586e+00  5.4751659846836125e+00  5.2813144586959515e+00  5.0765301972186565e+00  4.8115750356306624e+00  4.5350889330742339e+00  4.2762355743387923e+00  3.9716293325605827e+00  3.6886692157829821e+00  3.3796013572439705e+00  3.0592269857698815e+00  2.7442497842442197e+00  2.4683288515531299e+00  2.1757871616435831e+00  1.9447205073314708e+00  1.7122898991511448e+00  1.4550577617087883e+00  1.2447925046784176e+00  1.1092072513724782e+00  9.9322905565427544e-01  8.6814155192427300e-01  7.7710732840612895e-01  7.2109728738550083e-01  6.9375905177479724e-01  6.9244643258674676e-01  7.1411778423447925e-01  7.6266430046841049e-01  8.2885304750659927e-01  8.9478081514693875e-01  9.7523522232123749e-01  1.0807778195725299e+00  1.1614213216209179e+00  1.2641967001361087e+00  1.3740310867390872e+00  1.4958301458726697e+00  1.5911668827128065e+00  1.6698443489500725e+00  1.7529877533693261e+00  1.8513507745906346e+00  1.9282673158155113e+00  2.0296918837145932e+00  2.1248245014606786e+00  2.1935104052695360e+00  2.2654030153834981e+00  2.3371961098899092e+00  2.3812939570996323e+00  2.4400249702190182e+00  2.4713928369489948e+00  2.5058435317855174e+00  2.5387594362668797e+00  2.5208248120363659e+00  2.5016697184748740e+00  2.5071526048568105e+00  2.4927427203114600e+00  2.4794621423918182e+00  2.5050138030359164e+00  2.4719166865097861e+00  2.4627556199192147e+00  2.4488492541673401e+00  2.4013043198036415e+00  2.4037423509050213e+00  2.4312515120705864e+00  2.3954966673461624e+00  2.3871020511387084e+00  2.3887570122239286e+00  2.3439270095716784e+00  2.3058242196460155e+00  2.2403078070660776e+00  2.2298423926174467e+00  2.1877258239038215e+00  2.2167304089813364e+00  2.1288901935635658e+00  2.0882475064130910e+00  2.0753452171698390e+00  2.0108875123242202e+00  1.9782839223391859e+00  1.9176330069379888e+00  1.9288289337079925e+00  1.8154795946652791e+00  1.7666718713172938e+00  1.6971531313516668e+00  1.6463652479007169e+00  1.6072253056779426e+00  1.5627063484007269e+00  1.5109658099030965e+00  1.4501414150431811e+00  1.4088032337926750e+00  1.3406705495918150e+00  1.2938188483524140e+00  1.2332961189708367e+00  1.2047840918845156e+00  1.1797077327752472e+00  1.1231842821503430e+00  1.1089723455363500e+00  1.0561225699649439e+00  1.0306522764824613e+00  1.0127182810317101e+00  1.0122264389797468e+00  9.4476816234309757e-01  9.1907783195252313e-01  8.9481511778274669e-01  8.7484898166352210e-01  8.3111249975660029e-01  8.4722759462684738e-01  8.2895015568539832e-01  7.9920376214597066e-01  8.0500026063006402e-01  7.6303988582080651e-01  7.5240321902451535e-01  7.5259946495687646e-01  7.4295682727636958e-01  7.3417518614331256e-01  7.2424302453618528e-01  7.2042214374661195e-01  7.1871730922542498e-01  7.0816138131646467e-01  7.0099128700069624e-01  7.0792859289983101e-01  7.0939628701087076e-01  7.0280079492563707e-01  7.1019715339085254e-01  7.1073481118591431e-01  7.2765171940509121e-01  7.1818189280153766e-01  7.3217138551139394e-01  7.3704978172874480e-01  7.5902110830229197e-01  7.5540540311558468e-01  7.6517577107206680e-01  7.8189187307588581e-01  7.9755708639495237e-01  8.0777930365739081e-01  8.1300600727908778e-01  8.3407065079231790e-01  8.3989047578257492e-01  8.5994392315272661e-01  8.9488069084732147e-01  9.0035320121612838e-01  9.3070682550636008e-01  9.3978374240068852e-01  9.6439655657741963e-01  9.8677993228291627e-01  8.3900060062054682e-01  9.0454552139006916e-01  9.5763697146943505e-01  1.0204004469534744e+00  1.0968485002537578e+00  1.1905252935573649e+00  1.2829403330030054e+00  1.3655081508437368e+00  1.4510031053542152e+00  1.5339067713190906e+00  1.6114127501873339e+00  1.7034761390841895e+00  1.7946744984826466e+00  1.8931055114903925e+00  1.9882497257485745e+00  2.1039859118049966e+00  2.2181797060846873e+00  2.3177721681952179e+00  2.4528111700871809e+00  2.5896680230020883e+00  2.7199461533576632e+00  2.8510713800931566e+00  2.9781668584502903e+00  3.0822590317362182e+00  3.1876052606871341e+00  3.3060687826035946e+00  3.3898730682504161e+00  3.5134911502864341e+00  3.6370002549847920e+00  3.7285967186328257e+00  3.8447946590597590e+00  3.9547122068575171e+00  4.0498140458440508e+00  4.1179376127319918e+00  4.2306760694937999e+00  4.3008010096459017e+00  4.3053376978517690e+00  4.4145387852672524e+00  4.5818510607344525e+00  4.6900593425072410e+00  4.7547077003395293e+00  4.8257581230222693e+00  4.9094821153749963e+00  4.9417959592539251e+00  5.0182001025349630e+00  5.1269011828177273e+00  5.1486828222853296e+00  5.2123356041022415e+00  5.2200650373782986e+00  5.1650942963121302e+00  5.1806040361884342e+00  5.2297017336171345e+00  5.2442147655635312e+00  5.2544144204348395e+00  5.2211340072996064e+00  5.2120623025476487e+00  5.2052173138132556e+00  5.1532726554663792e+00  5.1188483844238624e+00  5.0852617278361283e+00  5.0557961251298575e+00  5.0804029112353426e+00  5.1285854235562587e+00  5.0609236886533315e+00  4.9876187850795111e+00  4.8490279074133724e+00  4.8578765359192415e+00  4.8787239884967999e+00  4.6966011799903269e+00  4.5568122325333187e+00  4.4982498936009145e+00  4.4716393616491334e+00  4.4460505513657829e+00  4.3801809645099334e+00  4.3054659842133836e+00  4.2727063257386533e+00  4.1971937170614400e+00  4.1517653108643220e+00  4.1446193866271983e+00  4.1451732662240595e+00  4.0573626918285184e+00  3.9637028861980919e+00  3.8655012460052944e+00  3.7778995964730631e+00  3.6754286222734351e+00  3.5425905929444110e+00  3.4444508700094381e+00  3.3288023649542251e+00  3.2419561415143576e+00  3.1610913186828702e+00  3.0703567499421993e+00  2.9639233848175519e+00  2.8435605115446059e+00  2.7172565072331483e+00  2.6046710564288253e+00  2.5240234137370194e+00  2.4027826839622008e+00  2.2960083619485450e+00  2.1834407115151300e+00  2.0989197329464244e+00  1.9956525168498793e+00  1.8931291895659730e+00  1.7937016071583487e+00  1.6973053569429577e+00  1.5852692059781075e+00  1.4907070568453356e+00  1.4035969338815162e+00  1.3283184797025873e+00  1.2316713367839878e+00  1.1582270911688124e+00  1.0579178850634885e+00  9.6286194347008625e-01  8.8007331446649995e-01  8.2486537402346904e-01  7.6917912872180072e-01  7.2267243163868333e-01  6.8715591031621759e-01  6.7206181953686739e-01  6.7374219648267053e-01  6.9623300534493593e-01  7.4241375480435778e-01  7.9943207695732943e-01  8.7464247064668743e-01  9.6772103041231872e-01  1.0795738808514870e+00  1.1916689089215124e+00  1.3386610714256224e+00  1.5302622054291917e+00  1.7083424654280617e+00  1.9056481478359422e+00  2.1348755331563409e+00  2.3414316835851432e+00  2.5477119411220430e+00  2.7931032327823644e+00  3.0694113562785548e+00  3.3277877988955811e+00  3.5856737833872465e+00  3.8292329968570082e+00  4.0542455692905799e+00  4.2963715069596420e+00  4.5330722225380420e+00  4.7678571659649291e+00  4.9861197802155717e+00  5.1712738444773354e+00  5.3679995233683213e+00  5.5829200096329092e+00  5.6883645148230801e+00  5.8577784283041856e+00  5.9637965286746519e+00  6.0719989137083186e+00  6.1431137852067748e+00  6.1645541714191037e+00  6.1942345673204464e+00  6.2172884757022659e+00  6.2485093094902080e+00  6.2347891693334674e+00  6.2314135567522202e+00  6.2092043878430312e+00  6.1928998722366737e+00  6.2227530857737969e+00  6.2479855749767959e+00  6.2376822951508393e+00  6.2231208872979940e+00  6.2116488496632893e+00  6.2286096698872404e+00  6.1833350934845193e+00  6.1299034897422455e+00  6.1031374131337497e+00  6.1105438888945320e+00  6.1203459693446254e+00  6.1196442445863974e+00  6.0987204592540261e+00  6.0328327599948688e+00  5.9796686235664511e+00  5.8848797465837146e+00  5.8741403713812748e+00  5.9301443850608804e+00  5.9712186982658979e+00  5.7982618529810850e+00  5.7191646101469287e+00  5.7890393485359279e+00  5.6618408033866139e+00  5.4758758111868451e+00  5.4106314800543887e+00  5.4169667477882886e+00  5.3064712704385206e+00  5.2568038251531375e+00  5.1945638384449566e+00  5.1702095771451315e+00  5.1222758304452114e+00  5.0783831257450220e+00  5.0396550427264852e+00  4.9752069292907040e+00  4.9257010729982618e+00  4.8519075127101106e+00  4.6658481717058313e+00  4.6193301914573519e+00  4.5391681450503549e+00  4.4801249238612693e+00  4.3532515961072047e+00  4.2318848964248437e+00  4.1388053394235635e+00  4.0799936664522685e+00  4.0549942694936938e+00  3.9675946526618500e+00  3.8555870284274456e+00  3.7294836007677121e+00  3.6425219206775425e+00  3.5588454252148249e+00  3.4753956592341813e+00  3.3640585852109646e+00  3.2805788105900331e+00  3.1757805804719803e+00  3.0408602051297251e+00  2.9051448942835516e+00  2.8074716127347199e+00  2.6857272111920003e+00  2.5561572152444789e+00  2.4240174663145830e+00  2.3059405018864774e+00  2.2085576310363875e+00  2.0963284155501380e+00  1.9846120157063432e+00  1.8845971979869087e+00  1.7777402049636160e+00  1.6668084461229384e+00  1.5575922105310955e+00  1.4667318207860456e+00  1.3630749218683249e+00  1.2516295921847584e+00  1.1655770144731150e+00  1.0861402164761751e+00  1.0210645767331346e+00  9.5364111247150196e-01  8.9371105891241542e-01  8.4049700806831384e-01  7.9362300723134482e-01  7.4941571744964364e-01  7.0616075075000351e-01  6.6168818665915896e-01  6.2765256147746484e-01  6.0443623288944281e-01  5.7613963592091111e-01  5.6398577621745682e-01  5.5363028426268102e-01  5.4635069969726868e-01  5.4071218635950480e-01  5.4808285618905350e-01  5.5832876033870216e-01  5.7395575063272553e-01  5.9767461391754662e-01  6.1815602936296787e-01  6.4928974780912097e-01  6.9117760678415863e-01  7.3310220148861849e-01  7.8326280239880375e-01  1.0796989277868834e+00  9.6031470174329947e-01  1.2590371213033837e+00  9.0534375755589436e-01  1.4498680270313582e+00  9.2628111570531646e-01  1.6893212802665205e+00  1.0164029358132602e+00  2.0048802937792298e+00  1.1866063859774028e+00  2.2360990588723975e+00  1.4531470802945969e+00  2.4664378279064443e+00  1.7190613525096945e+00  2.7538977292495876e+00  2.0637568905834969e+00  2.8470657071621748e+00  2.4022522577039247e+00  1.1187480554099036e+00  3.0596589067107693e+00  1.1259018208812306e+00  1.1083186710284878e+00  1.1268109400221695e+00  8.8253079673791612e-01  1.5276397206785526e+00  1.1995069351493859e+00  7.6166906422943292e-01  2.8230836189764164e+00  1.1517471207068573e+00  1.0958953946196384e+00  7.6208377817656514e-01  3.1372488861568821e+00  1.9526505372617327e+00  1.0881600443576624e+00  1.2575735360664040e+00  8.9931496950729806e-01  2.4578425702888236e+00  1.1272206337710049e+00  3.1254156930291450e+00  1.1678574540422071e+00  1.0609671046491291e+00  9.9672508229957490e-01  1.1325242269684106e+00  1.4724725605297662e+00  1.1567612367422933e+00  1.1761193545133302e+00  2.7740932766341651e+00  3.0947047783772161e+00  1.0413745288978911e+00  1.1527331753876293e+00  1.0468974144154570e+00  3.4281396300648588e+00  1.6791218676074249e+00  1.2270227852313551e+00  1.7709328246184535e+00  1.3824506403491366e+00  3.0655916889428108e+00  1.1719204168164876e+00  1.1743168011027210e+00  2.7830471345097689e+00  1.5768665435007474e+00  7.9478999479881329e-01  7.3211239242564863e-01  3.2408132384810995e+00  8.0517349481847700e-01  1.0661712206758653e+00  1.3349871633429846e+00  1.8447443566307613e+00  3.8940638391982811e+00  1.2059838857045582e+00  3.0667838450827078e+00  2.3862629158843895e+00  2.0272253929515109e+00  3.4313488221517163e+00  1.3472559617355551e+00  3.2949438069917250e+00  4.1754273565591271e+00  9.2730647738280902e-01  1.1855711952951162e+00  1.2803932669671660e+00  1.5258652140656315e+00  2.2221345967916961e+00  1.9321918299553966e+00  1.5294444427014708e+00  1.0013982365261271e+00  3.0021324555409281e+00  3.7789456764546694e+00  2.5150176479401698e+00  8.9694844730174128e-01  1.7935154200768353e+00  1.5046458640299425e+00  1.5831784031440139e+00  3.7126836920517960e+00  1.3456249872008477e+00  4.4836033676718898e+00  1.3480637336624905e+00  1.8176447156089599e+00  1.7831156238074679e+00  2.3030976894688413e+00  9.7031763782914815e-01  2.9966880171763823e+00  1.1188831332030171e+00  1.1992951180270222e+00  1.0811984771181475e+00  3.0288384476206471e+00  9.5305881750234833e-01  1.0268941574912529e+00  9.4905401244325727e-01  3.8596090664671885e+00  1.2152868804104915e+00  1.2937613108450645e+00  1.1108012673129857e+00  1.1562979707188366e+00  4.7607177034879946e+00  2.5862799186939585e+00  1.0514896265742768e+00  9.8479930924959380e-01  1.5898431864382816e+00  1.2319379525001108e+00  4.0126879286541870e+00  3.4579062779854910e+00  2.1082894294835262e+00  1.0994326928215610e+00  1.5744293988619926e+00  1.2211903235673558e+00  3.8467095857325275e+00  2.9358962614317834e+00  1.1295755842782855e+00  1.1472167509850275e+00  1.0691301968725717e+00  7.5146355096557316e-01  2.4226660185866944e+00  1.3314423381056610e+00  2.1456788566481202e+00  8.5125074443906046e-01  3.9813263093465037e+00  1.0877831767406709e+00  1.2907896717115421e+00  5.0737364337516775e+00  2.5606285994457441e+00  9.0599816256418131e-01  9.0178114772743068e-01  2.1745096141846854e+00  1.2285763256526079e+00  6.7079850617904224e-01  6.4858861518448496e-01  1.0853237480534432e+00  1.5450693203668200e+00  1.0075358165176227e+00  2.2896355547261114e+00  1.0705358507694380e+00  1.2427081528923203e+00  1.1840783215664437e+00  2.0650773449382371e+00  1.0140713957497027e+00  1.0546225928432293e+00  1.7942808781264772e+00  1.3753331839263889e+00  9.4478914306155382e-01  9.1334136741374139e-01  1.2727671622823431e+00  1.8149235554548306e+00  2.2782035874683388e+00  2.9268846008515244e+00  2.3508524983999002e+00  8.5109165135509890e-01  6.8071521370379817e-01  7.3462267299273354e-01  1.3291580464358232e+00  1.2704459579557315e+00  1.7153361401989200e+00  1.1981840703545501e+00  1.5435739846793779e+00  2.6334066932445013e+00  2.8303514782148715e+00  3.7600793979333091e+00  1.2636667256853480e+00  9.8034089883090536e-01  1.9817496143396656e+00  3.4412563220690568e+00  1.0752158731612647e+00  1.0702606584190228e+00  2.3048687737055702e+00  1.0146420313054054e+00  8.7737859286899966e-01  1.6633994265782046e+00  8.4551091729104533e-01  2.9926158466101116e+00  2.8001957571256071e+00  3.8738568594087321e+00  5.3215058212701347e+00  2.7772741364435478e+00  1.2751109462172059e+00  2.4530835639969872e+00  8.8958006657710409e-01  1.1201431217386435e+00  1.0221547122156036e+00  2.4626374998149401e+00  1.4081884048079214e+00  2.1119582671219819e+00  1.1218382139578131e+00  8.1539803288227486e-01  1.2918965985684259e+00  2.6844283827327775e+00  2.5444786535161743e+00  8.6586367724087054e-01  1.2265176028730562e+00  2.1120670663078625e+00  1.8713332612778517e+00  1.5167754406435525e+00  4.1064579848164993e+00  3.5643730862057530e+00  1.2914561868385077e+00  1.3027819014357218e+00  1.0777484608262982e+00  2.4727560781859919e+00  2.8145306694132755e+00  9.8118828191114160e-01  1.0779323953917097e+00  5.5075692143499380e+00  1.0671876739368895e+00  1.2390483457707073e+00  1.2671580744096258e+00  3.1933081796534322e+00  1.2119280485712018e+00  1.0873045257712761e+00  1.2487421094536317e+00  1.4513015538244878e+00  8.0771181293043526e-01  3.7000371139744987e+00  2.5893022973483433e+00  1.4866615411369057e+00  6.8231892505530656e-01  9.2157197175985339e-01  1.7539830815425204e+00  1.1868470470738766e+00  2.6709069346003895e+00  1.8087237268897729e+00  2.4049032094946714e+00  2.5205681468802612e+00  4.3305644793393281e+00  1.4976287041197438e+00  7.9419883849789086e-01  1.2689803045800054e+00  9.4852466329197194e-01  1.9988071867433588e+00  4.0542899258378160e+00  9.6376815308509056e-01  3.6599337124631122e+00  1.2905412047331777e+00  4.0411397408373162e+00  2.2154964597773956e+00  5.6832214735933837e+00  1.7185099288341632e+00  8.6145966898389614e-01  2.1433503639003662e+00  1.0942608334511141e+00  1.4487747928904444e+00  2.3858254240835821e+00  3.9428511256562593e+00  1.5083947979391301e+00  1.4142586104772517e+00  1.3292077488484253e+00  1.3306623742866659e+00  2.3426093365204030e+00  1.6224217671694054e+00  4.4092172198279211e+00  3.0117913328139667e+00  3.9036278245575793e+00  2.1139977045253739e+00  1.9207469259193848e+00  2.8974652843621591e+00  2.7016772143607892e+00  1.2402092127331681e+00  3.1339441562902746e+00  1.0268487549223306e+00  2.7063735648639073e+00  1.2888434352003011e+00  3.4779782927046448e+00  2.6586592337679757e+00  3.3401658966301362e+00  1.3115700328931377e+00  1.0202519974792270e+00  3.8294929944561797e+00  2.4181696561643178e+00  8.3197124629509833e-01  1.3201338572305104e+00  5.7739855443538266e+00  2.7911573017902023e+00  2.5733225774073683e+00  2.9836950675914600e+00  2.7374306304400386e+00  2.6880302896636925e+00  9.4155349694973778e-01  4.1639884091501509e+00  1.3242265573457961e+00  3.1039020051463910e+00  1.3563312293951078e+00  6.5619045485562499e-01  3.4431710662513648e+00  3.1552945843040834e+00  1.2315984376156401e+00  1.0870619131226449e+00  1.6587444956824218e+00  4.7472336474443040e+00  1.1333124271548292e+00  1.1315352504555956e+00  1.0302206385977095e+00  2.1524392203106637e+00  4.4933035814493412e+00  1.7049115340524652e+00  1.7536335565680654e+00  1.3815256852692188e+00  8.8283177518020806e-01  1.1621898223028468e+00  3.5053493186854974e+00  9.1993451670331516e-01  1.1609458