<?xml version="1.0"?>
<VTKFile type="UnstructuredGrid"  version="0.1"  >
<UnstructuredGrid>
<Piece  NumberOfPoints="4073" NumberOfCells="7430">
<Points>
<DataArray  type="Float64"  NumberOfComponents="3"  format="ascii">-20 2.5 0  -20 0 0  -1 0 0  -0.9996988186962042 0.02454122852291233 0  -0.9987954562051724 0.04906767432741797 0  -0.9972904566786902 0.07356456359966773 0  -0.9951847266721968 0.09801714032956083 0  -0.99247953459871 0.1224106751992163 0  -0.989176509964781 0.1467304744553618 0  -0.9852776423889412 0.1709618887603012 0  -0.9807852804032304 0.1950903220161286 0  -0.9757021300385285 0.21910124015687 0  -0.970031253194544 0.2429801799032641 0  -0.9637760657954398 0.2667127574748985 0  -0.9569403357322088 0.2902846772544624 0  -0.9495281805930367 0.3136817403988914 0  -0.9415440651830207 0.3368898533922203 0  -0.9329927988347388 0.3598950365349883 0  -0.9238795325112867 0.3826834323650899 0  -0.9142097557035307 0.4052413140049899 0  -0.9039892931234433 0.427555093430282 0  -0.8932243011955152 0.4496113296546069 0  -0.8819212643483549 0.4713967368259979 0  -0.8700869911087113 0.4928981922297841 0  -0.857728610000272 0.5141027441932218 0  -0.8448535652497071 0.5349976198870972 0  -0.8314696123025453 0.5555702330196022 0  -0.8175848131515836 0.5758081914178454 0  -0.8032075314806448 0.5956993044924335 0  -0.7883464276266062 0.6152315905806269 0  -0.773010453362737 0.6343932841636455 0  -0.7572088465064846 0.6531728429537766 0  -0.7409511253549589 0.6715589548470186 0  -0.7242470829514668 0.6895405447370671 0  -0.7071067811865475 0.7071067811865476 0  -0.6895405447370669 0.7242470829514669 0  -0.6715589548470184 0.740951125354959 0  -0.6531728429537765 0.7572088465064847 0  -0.6343932841636454 0.7730104533627371 0  -0.6152315905806267 0.7883464276266063 0  -0.5956993044924334 0.8032075314806449 0  -0.5758081914178453 0.8175848131515837 0  -0.555570233019602 0.8314696123025455 0  -0.534997619887097 0.8448535652497072 0  -0.5141027441932217 0.8577286100002721 0  -0.492898192229784 0.8700869911087115 0  -0.4713967368259977 0.881921264348355 0  -0.4496113296546067 0.8932243011955152 0  -0.4275550934302819 0.9039892931234434 0  -0.4052413140049897 0.9142097557035307 0  -0.3826834323650897 0.9238795325112867 0  -0.3598950365349882 0.9329927988347388 0  -0.3368898533922199 0.9415440651830208 0  -0.3136817403988914 0.9495281805930367 0  -0.2902846772544622 0.9569403357322089 0  -0.2667127574748983 0.9637760657954398 0  -0.2429801799032639 0.970031253194544 0  -0.2191012401568697 0.9757021300385286 0  -0.1950903220161282 0.9807852804032304 0  -0.1709618887603012 0.9852776423889412 0  -0.1467304744553616 0.989176509964781 0  -0.1224106751992162 0.99247953459871 0  -0.09801714032956065 0.9951847266721969 0  -0.07356456359966733 0.9972904566786902 0  -0.04906767432741801 0.9987954562051724 0  -0.02454122852291214 0.9996988186962042 0  6.123233995736766e-17 1 0  0.02454122852291226 0.9996988186962042 0  0.04906767432741813 0.9987954562051724 0  0.07356456359966745 0.9972904566786902 0  0.09801714032956077 0.9951847266721968 0  0.1224106751992163 0.99247953459871 0  0.1467304744553617 0.989176509964781 0  0.1709618887603014 0.9852776423889412 0  0.1950903220161283 0.9807852804032304 0  0.2191012401568698 0.9757021300385286 0  0.242980179903264 0.970031253194544 0  0.2667127574748984 0.9637760657954398 0  0.2902846772544623 0.9569403357322089 0  0.3136817403988916 0.9495281805930367 0  0.3368898533922201 0.9415440651830208 0  0.3598950365349883 0.9329927988347388 0  0.3826834323650898 0.9238795325112867 0  0.4052413140049899 0.9142097557035307 0  0.4275550934302822 0.9039892931234433 0  0.4496113296546066 0.8932243011955153 0  0.4713967368259978 0.8819212643483549 0  0.4928981922297841 0.8700869911087113 0  0.5141027441932217 0.8577286100002721 0  0.5349976198870973 0.844853565249707 0  0.5555702330196023 0.8314696123025452 0  0.5758081914178453 0.8175848131515837 0  0.5956993044924335 0.8032075314806448 0  0.6152315905806268 0.7883464276266062 0  0.6343932841636455 0.773010453362737 0  0.6531728429537768 0.7572088465064845 0  0.6715589548470183 0.7409511253549591 0  0.6895405447370669 0.7242470829514669 0  0.7071067811865476 0.7071067811865475 0  0.724247082951467 0.6895405447370668 0  0.7409511253549591 0.6715589548470183 0  0.7572088465064846 0.6531728429537768 0  0.773010453362737 0.6343932841636455 0  0.7883464276266063 0.6152315905806268 0  0.8032075314806449 0.5956993044924334 0  0.8175848131515837 0.5758081914178453 0  0.8314696123025452 0.5555702330196022 0  0.8448535652497071 0.5349976198870972 0  0.8577286100002721 0.5141027441932217 0  0.8700869911087115 0.492898192229784 0  0.881921264348355 0.4713967368259976 0  0.8932243011955153 0.4496113296546065 0  0.9039892931234433 0.4275550934302821 0  0.9142097557035307 0.4052413140049899 0  0.9238795325112867 0.3826834323650898 0  0.932992798834739 0.3598950365349881 0  0.9415440651830208 0.3368898533922201 0  0.9495281805930367 0.3136817403988915 0  0.9569403357322088 0.2902846772544623 0  0.9637760657954398 0.2667127574748984 0  0.970031253194544 0.2429801799032639 0  0.9757021300385286 0.2191012401568698 0  0.9807852804032304 0.1950903220161282 0  0.9852776423889412 0.1709618887603012 0  0.989176509964781 0.1467304744553617 0  0.99247953459871 0.1224106751992162 0  0.9951847266721969 0.0980171403295606 0  0.9972904566786902 0.07356456359966743 0  0.9987954562051724 0.04906767432741801 0  0.9996988186962042 0.02454122852291229 0  1 0 0  20 0 0  20 2.5 0  0 2.5 0  -10 2.5 0  10 2.5 0  -10.5 0 0  -5 2.5 0  10.5 0 0  5 2.5 0  -5.75 0 0  5.75 0 0  -15.25 0 0  -15 2.5 0  15.25 0 0  15 2.5 0  -17.625 0 0  -17.5 2.5 0  17.5 2.5 0  17.625 0 0  12.5 2.5 0  12.875 0 0  -12.5 2.5 0  -12.875 0 0  -2.5 2.5 0  2.5 2.5 0  -8.125 0 0  -7.5 2.5 0  8.125 0 0  7.5 2.5 0  -3.375 0 0  3.375 0 0  -18.75 2.5 0  20 1.25 0  16.4375 1.19375 0  -16.25 2.5 0  13.75 2.5 0  -14.0625 0 0  -11.6875 0 0  11.6875 0 0  8.75 2.5 0  -8.75 2.5 0  6.9375 0 0  6.25 2.5 0  -6.25 2.5 0  -9.3125 0 0  -6.9375 0 0  9.3125 0 0  11.25 2.5 0  -11.25 2.5 0  3.75 2.5 0  4.5625 0 0  -4.5625 0 0  -3.75 2.5 0  -13.75 2.5 0  14.0625 0 0  -16.4375 0 0  -20 1.25 0  -18.8125 0 0  18.75 2.5 0  -18.21875 1.2359375 0  18.125 1.278125 0  -15.84375 1.2125 0  -14.375 1.30859375 0  14.65625 1.203125 0  2.1875 0 0  -2.1875 0 0  13.125 1.315625 0  3.125 1.315625 0  -3.125 1.315625 0  -12.28125 1.1890625 0  -5.15625 1.184375 0  11.09375 1.184375 0  5.625 1.325 0  -10.97262068800044 1.220713793599868 0  9.375 1.32734375 0  -6.875 1.32734375 0  -9.67626828410207 1.24449497187193 0  8.061334925608099 1.312208731402025 0  -8.188665074391901 1.312208731402025 0  -1.25 2.5 0  1.25 2.5 0  4.37465139623265 1.41327350462657 0  16.25 2.5 0  6.84375467392576 1.430449641528851 0  1.846573640185365 1.334702047669377 0  -1.846573640185365 1.334702047669377 0  -17.02955351149946 1.396129584721571 0  16.4375 0 0  18.8125 0 0  -13.31314667860176 1.511193493282891 0  -4.122005747945582 0.961844908681634 0  12.12799425205442 0.961844908681634 0  15.54930641305724 1.660405980876393 0  19.0578783583929 0.9559530595267438 0  8.71875 0.6864560603786576 0  -7.53125 0.6864560603786576 0  0.6257799091428734 1.819008129832855 0  -0.6257799091428727 1.819008129832856 0  6.291331569065717 0.7194652423646902 0  -19.11204717950418 0.9044926794710327 0  -4.488713231834613 1.772186102355655 0  11.76128676816539 1.772186102355655 0  -19.28185607205105 1.781856072051052 0  19.30868080343342 1.808680803433421 0  9.90625 0.6371857066656857 0  -6.34375 0.6371857066656857 0  3.796921710049233 0.7617406159238448 0  7.392020585015773 0.7480839107774819 0  -8.910372062800235 0.7929553447587234 0  10.2506781820361 1.451853913138859 0  -5.999321817963904 1.451853913138859 0  4.957643119381741 0.7716423099297361 0  17.29984375 0.8640625 0  15.41193625859067 0.8279888354083842 0  -13.72251704931534 0.7728002662082776 0  16.875 2.5 0  17.12178336313261 1.690954734835967 0  -11.64001625260176 1.74572103154608 0  2.477726735235857 0.7850262278604345 0  13.46875 0 0  13.765625 0.7802887470308788 0  -2.78125 0 0  -2.477726735235857 0.7850262278604346 0  -10.33383379274331 1.744431431923121 0  13.91957519050334 1.653419259628842 0  -15.08147780274903 0.8341506893754731 0  -15.14066649024666 1.671962869821843 0  -8.950686484882164 1.678622661163363 0  -17.55392917606836 0.794731598412167 0  -16.80247533599675 0.6688259240674158 0  -12.94289066923278 0.7766744225472476 0  -9.90625 0 0  -10.31601468672093 0.7730817089126454 0  -18.21875 0 0  -12.28125 0 0  -17.68515668569534 1.768907656575843 0  18.21875 0 0  10.85059123027421 1.880344717307101 0  -5.399408769725794 1.880344717307101 0  -3.738137326223278 1.749164834446819 0  -3.125 2.5 0  12.46235897590077 1.601301060091387 0  -11.09375 0 0  -11.61661448001209 0.7781698802173554 0  -15.625 2.5 0  1.59375 0 0  -1.764022608759088 0.6027229563180789 0  -8.125 2.5 0  8.125 2.5 0  8.713468311289519 1.727645658498745 0  9.375 2.5 0  -7.536531688710481 1.727645658498745 0  -6.875 2.5 0  14.375 2.5 0  17.78381794101733 1.874391370085592 0  18.59891476281433 1.80649740393129 0  -18.58835555265984 1.824268641341969 0  1.806126122135773 0.6510673837470153 0  -16.875 2.5 0  -16.36681393636619 1.755298393865037 0  -16.13072438662071 0.6014017614895231 0  -13.92460230791385 1.83195710210235 0  -14.40198779087891 0.6105385965811564 0  20 0.625 0  19.40625 0 0  14.6875 1.888836596385542 0  14.65625 0 0  12.78248197181444 0.6991460920542635 0  -3.467518028185561 0.6991460920542635 0  13.125 2.5 0  2.491957142932539 1.738660596534321 0  3.125 2.5 0  1.875 2.5 0  3.718973573227002 1.75927763286174 0  -2.491957142932539 1.738660596534321 0  -1.875 2.5 0  -9.375 2.5 0  6.2001972846108 1.772767401802766 0  5.625 2.5 0  5.027483518098582 1.760895488350309 0  5.625981449127788 0.6566963631252629 0  -12.30101114679273 1.859484693920165 0  9.742489932362783 1.884363450023167 0  -6.507510067637216 1.884363450023166 0  1.13492303295015 1.283502262067074
[...]
<CellData  Scalars="f_2231445"> 
<DataArray  type="Float64"  Name="f_2231445"  format="ascii">8.6598232811970162e-06   1.2427792911420177e-05   8.5788634078569238e-06   1.7611147678262083e-05   3.9919698597622866e-04   2.2952428390650767e-04   1.3577639507326765e-03   3.4811751253520135e-03   1.6160927009196400e-05   1.3496639989619996e-05   1.0057985200151619e-05   9.4431703148198078e-06   4.3787797294737162e-05   2.6293526204199616e-05   8.1500031532595141e-05   1.7864119372395428e-04   3.1598982514707118e-03   1.2335790798722200e-03   8.6503478717395218e-03   1.1147244706496817e-02   1.1627304389820418e-05   1.4806333154946566e-05   1.2618028864606387e-05   1.1902978061479023e-05   4.8634419655808786e-06   6.2543445992894363e-06   7.1675968062962746e-06   4.9984107675132063e-06   8.3231481665579647e-06   8.0820652372690508e-06   9.2150104640822246e-06   6.3255951254169613e-06   1.7646478773306808e-05   1.5933750260970448e-05   9.2745865761484321e-06   7.3888532948644207e-06   7.6429952225484548e-06   1.3114788164019264e-05   1.1060311366498668e-05   5.7206773008348504e-06   4.1065872501397231e-06   1.1734650014217151e-05   7.8353846871447745e-06   6.7758909806700349e-06   9.7275055663720716e-06   5.5288414858530807e-06   1.7280257956891904e-05   1.4661906069195203e-05   1.0260519549700171e-05   3.9534012064284196e-06   6.2200945077584109e-06   4.9111318980073630e-06   7.8983418371448971e-06   1.0835887515207897e-05   5.8422586300709882e-06   9.8203497482732853e-06   6.9933447714795277e-06   7.9695160349661377e-06   3.7580725878387336e-06   3.7256336587276448e-06   2.5751827789855655e-05   4.0164212997815563e-05   2.5089989781249477e-05   2.8439669018015618e-05   1.1492890695928640e-05   1.1804169272958341e-05   1.3456840251063233e-05   8.5851208594283273e-06   3.0614211836275882e-06   2.9911250500032870e-06   3.3449577003728161e-06   2.9508299423546935e-06   8.0442925113261583e-06   7.2623496012680560e-06   1.7762894818645013e-05   1.0292498303230627e-05   1.5785996841385511e-05   1.4659372788594368e-05   2.4357648053340246e-05   4.6981707339518219e-05   4.1290768718948088e-05   2.5606847465961588e-05   7.0684504987912980e-05   5.0421011273262431e-05   4.7359388809157279e-05   8.2023756314230533e-05   3.8378375811206147e-05   5.3936146588001903e-05   1.4102508206079234e-05   2.3486463561145485e-05   1.7080980071190246e-05   3.2694721939459354e-05   3.2600034899912244e-05   4.1105079196371832e-05   2.9788428919023800e-05   3.4206650218743557e-05   3.8005687200475655e-05   3.9692004774637302e-05   3.0276459422765842e-05   4.0841314613688994e-05   2.9510384593109482e-05   2.4218328360093755e-05   3.5418049204742737e-05   1.6487259170589849e-05   1.6254333965888632e-05   1.3926391480294854e-05   3.7021939070472652e-05   2.7970815756032407e-05   3.8935068052167057e-05   3.7399047750510467e-05   2.0931941147573018e-05   1.9919035148861015e-05   1.9439002081116280e-05   2.0816517625763092e-05   2.8676530234667199e-05   4.3338549347701102e-05   2.1395947994794421e-05   1.8282204542397572e-05   4.3054668294245421e-05   3.7022387679216277e-05   5.4651148680826532e-04   3.0802246401720823e-03   5.4380309378983856e-04   9.6158914444522314e-04   2.5194911679038082e-04   1.9545978951980995e-04   1.0097348217462175e-04   3.8859759820644989e-05   3.0811387685261105e-05   2.9351547641338281e-05   2.7695227984362354e-05   2.0533092704464800e-05   2.1014225885278624e-05   3.2422196545569210e-05   1.9966893746707476e-05   2.9328807934557853e-05   3.0936428509893737e-05   4.5448296741331942e-05   3.7178238922745990e-05   3.1512636780422973e-05   3.2811324158758431e-05   2.7963382476449851e-05   2.9322602166596952e-05   2.5758355992345712e-05   3.3567242779408365e-05   2.9062474732609567e-05   2.2715963083229294e-05   9.0182260258130434e-06   1.4262217365051929e-05   1.6311443923321493e-05   3.3356693975178528e-05   2.7037470157871303e-05   1.4472159561384070e-05   9.6344735782825544e-06   2.7355947247261503e-05   2.4612174244324889e-05   5.3428002586770027e-06   7.7687532971832873e-06   1.3723314624289135e-05   6.7813484564258392e-06   3.7264531572121425e-05   3.5210992198341699e-05   2.5049615874258855e-05   3.1678961973375182e-05   2.0988137002723839e-05   3.9200708801489674e-05   2.0660363441358167e-05   2.1317820223779866e-05   1.5667257483379952e-05   1.7210392217609322e-05   1.0615548795638983e-05   2.8752327502828996e-05   9.2294561875986938e-06   4.0165121714199308e-06   2.1827764758599295e-05   2.0456083183261991e-05   1.1154047151701042e-05   1.2858123948804213e-05   6.3927433736142712e-06   7.3780079621301443e-06   1.6173937842661965e-05   4.7302709550296511e-05   3.0511785020149810e-05   2.2263739947384069e-05   3.8657447702827393e-05   4.1049999134131481e-05   2.6897272178000739e-05   3.0714839831603652e-05   2.2249799027751610e-05   2.0150515701421526e-05   1.3111063377799249e-05   9.2841895691487878e-06   1.4762145663974227e-05   2.8784514264163762e-05   1.4293624810011237e-05   1.2673033653226223e-05   5.5556141267266954e-06   5.8990433238524297e-06   3.9865269160331364e-06   4.4765960303136087e-06   8.9112906298238890e-06   8.7946525060642434e-06   8.2216459592108372e-06   5.7805630446603210e-06   8.1970974969503473e-06   4.6290675575608673e-06   4.2830450026337000e-06   5.4675760496810744e-06   1.0102088698470988e-05   5.5378246482200712e-06   1.1102206571649866e-05   7.4530580203084577e-06   1.1019054780099709e-05   1.2551846101518618e-05   6.7382435683869820e-06   2.0784322745370932e-05   9.4381815405714178e-06   1.7579629347512142e-05   9.6626584560379563e-06   7.0714315514948345e-06   9.5098188176020701e-06   1.5865343233091686e-05   7.1032065977962789e-06   1.4486538198463380e-05   1.3082497651484533e-05   9.7487551471749502e-06   2.1781309149010221e-05   2.4337923019884396e-05   1.0462751237410532e-05   1.9390091811334484e-05   1.1724023485872570e-05   8.3924004040600077e-06   4.4921890534205872e-05   4.3340493721043658e-05   2.3176136546371195e-05   1.3494347588883938e-05   1.0912269183921203e-05   1.9836428510831278e-05   1.5163901010163977e-05   1.1817239086175412e-05   1.5967659054778679e-05   1.5188248111671910e-05   4.7695061610954921e-05   3.1952595950682718e-05   1.3499494562026929e-05   3.5130786343559688e-05   3.3748833378438473e-05   2.7872579847746946e-05   4.9297453432510769e-05   8.1321979873183030e-05   4.9295909416029104e-05   8.4953168605615673e-05   7.7177907637151885e-06   6.5374460976266309e-06   1.6207134010927781e-05   8.6504939873470386e-06   1.1200204079233414e-05   9.4795445161459910e-06   1.8960884916753279e-05   1.8286023006400198e-05   1.4688234623068455e-05   3.2784599090049646e-05   1.3723617964567134e-05   2.0862936560141653e-05   6.4781064193096966e-05   6.2673756406223967e-05   4.3182599356899622e-05   3.3884586518035633e-05   3.4953523191708255e-05   5.4755995853572165e-05   4.2774709039868987e-05   2.9180585758185556e-05   1.6001446346933736e-05   1.5368598082652782e-05   4.7479275563960922e-05   4.4978627426727349e-05   1.3540935826308828e-05   8.8240462330459702e-06   2.6126244625120735e-05   1.5032242536701441e-05   3.9076594930541981e-05   3.2062058296366499e-05   1.6083335379131650e-05   2.3404770404429495e-05   3.5415731539365243e-05   3.0232240397684426e-05   5.1929170390834360e-05   3.6227736344746927e-05   7.5323818486765823e-06   1.2027168092498671e-05   5.7667252544506814e-06   1.1418262928515087e-05   1.0170889911018956e-05   7.3613631817854203e-06   1.0257553667875397e-05   4.8559825659721862e-06   5.1249129594039008e-05   3.1106842116353324e-05   5.3051266842627432e-05   6.5907749472353866e-05   2.5618046461294526e-05   1.5428935356577032e-05   4.9129903868339316e-05   3.2126136475014588e-05   5.2455777741914814e-05   4.5018442158180974e-05   3.7563816887601026e-05   2.7365920983020065e-05   2.4519988440258869e-05   5.1889566195342243e-05   2.9997280659455743e-05   3.7256244216854249e-05   1.0482496174828759e-04   5.6345247105028188e-05   9.6584958431583862e-05   4.1463153495268836e-05   4.7250519842213223e-06   9.6116634051539397e-06   7.7959098814854387e-06   1.1977393428281889e-05   1.6881180002630107e-05   1.3668914412505862e-05   2.3779225363487316e-05   2.4832992586018378e-05   4.0435907368434866e-05   4.2345011583538723e-05   3.5449809385623389e-05   1.8400918512651405e-05   1.1306269894214870e-05   1.7741522167790972e-05   9.2829806846669069e-06   2.1217443647692134e-05   1.2454754499230901e-05   2.0233873206102668e-05   2.6575598642029454e-05   2.1966308834451772e-05   1.0127901878011960e-05   1.5534836428199567e-05   1.0730668984742142e-05   7.6219359523504453e-06   1.6612176056673458e-05   1.5563817178853607e-05   1.5655464609079974e-05   8.5550977926952998e-06   1.2016162099016049e-05   1.7788480919762506e-05   1.4117378382962480e-05   1.9049906293714568e-05   9.7839222370085293e-06   1.6285568899833140e-05   9.0921173872684987e-06   2.0534077492054444e-05   3.9974268008799907e-05   6.3315892503841990e-05   4.1684971371509456e-05   6.0443437776078765e-05   1.9726353488060614e-05   2.4090646167290452e-05   1.7791034840511338e-05   4.4496212402509144e-05   1.7839202920480356e-05   1.6979324141728135e-05   1.3978896758894988e-05   1.3307463539414470e-05   6.2431796038410142e-05   7.0287254892108505e-05   2.0379151855328712e-05   1.6688700036368364e-05   8.2099720702822550e-05   6.0397908782490102e-05   3.8510993917710557e-04   8.9392878590084809e-04   9.1295308312588322e-06   7.9588739500531131e-06   1.1260169709076199e-05   7.3273252544665793e-06   9.5848422459029955e-06   2.1052382786193541e-05   1.7167343261638247e-05   6.4297744379082982e-06   1.8514448294017596e-05   1.2315212687677206e-05   2.2325795206171918e-05   2.5217835375537776e-05   1.9199530991994491e-05   1.4899523344474767e-05   1.9230962964328141e-05   2.0708889550514435e-05   8.4395776589150460e-06   1.2167760582440701e-05   1.0710879728876539e-05   8.6096205742771704e-06   3.8679345896192196e-05   4.3280272084378091e-05   3.2903813462535877e-05   4.0611688934651231e-05   1.5839335482444029e-05   1.9226673615860146e-05   1.2892473326431548e-05   1.9808101884593858e-05   9.9451172982647653e-06   7.8682830068074317e-06   7.8293571878201614e-06   1.6906861332708798e-05   3.5165684929748687e-05   2.3960934760609819e-05   2.6871925047129751e-05   1.9820596576117096e-05   1.5282337855158926e-05   2.1734917413922061e-05   3.1641586535615898e-05   1.3421163468627748e-05   5.5145201180560116e-06   1.1554410046923865e-05   9.0312390124354373e-06   4.0793367819035584e-06   1.4439850382949012e-05   1.3943780185414769e-05   1.0573966646608277e-05   7.1674600850166471e-06   2.3572075952707032e-05   2.5025581625759367e-05   2.4745678298352962e-05   2.7504223704198066e-05   1.0622213392184622e-05   1.6899324734638958e-05   2.1962226836292779e-05   1.4684217507218220e-05   1.0283535759641592e-05   1.3007991155393997e-05   6.4722141068932765e-06   7.4358671546019197e-06   5.3784141418707901e-06   1.0676688973435743e-05   8.8421501635098812e-06   5.8980499353133646e-06   3.1496406999934268e-05   2.4892910086667409e-05   2.1833438297989024e-05   2.6272072489901453e-05   1.2691728820590555e-05   1.5198049226299959e-05   3.2258059965091501e-05   9.7084420508378011e-06   1.0535700099370431e-05   1.7902418994039814e-05   9.2146035362167006e-06   8.1550247700231423e-06   1.8645451642628975e-05   1.3169146094872945e-05   1.8574689656735696e-05   1.1721951492016218e-05   2.1509497457298804e-05   1.6842978803059561e-05   2.1869252655755838e-05   1.8596582039303974e-05   1.2484210640861412e-05   6.1742159571981111e-06   1.7630353887876820e-05   1.6549774532335075e-05   2.5945275878366660e-05   2.1284010883655442e-05   2.3523624679326904e-05   2.2710653470113647e-05   2.6605978961248535e-09   1.9012276551650866e-05   9.5694392348326698e-06   3.0123738289649206e-05   2.7900701112080417e-05   6.5319430799768257e-06   1.4175156285522463e-05   6.3897571145900705e-06   1.1030705688715716e-05   2.7576789829077530e-06   9.5454597379401332e-06   7.2373204133681844e-06   6.4020290953821508e-06   1.1148176450966040e-08   6.7460762613468525e-09   7.6038545283724321e-09   3.2638095499173812e-09   1.8053524153299790e-09   3.0803315395065393e-09   1.1683294082583539e-09   5.9372082497326812e-06   7.3321758706876737e-06   7.9596990498756191e-06   1.1931456746573715e-05   3.8433638944542928e-05   4.6729274183042250e-05   1.7387803729698635e-05   2.4396106969227982e-05   1.2696827926333650e-05   1.5053496103454639e-05   1.2447299237538953e-05   9.9068137257906776e-06   1.8944443930719269e-08   4.5672282380235105e-06   4.8823126077787472e-06   5.1194914870008521e-06   3.8046854841606970e-06   2.4463866427411088e-09   1.7166571749204464e-09   1.8532822629365269e-09   2.9064882039964005e-09   1.5401614641742893e-09   3.3742103111092492e-09   2.6531132903722153e-09   2.9137195655969264e-09   6.3341661842872758e-08   7.3465467503991926e-08   3.8911314409789064e-07   8.1135470430709083e-08   1.6162102112292254e-07   8.7169256338911653e-08   1.5378590917774249e-07   9.2266607573290494e-07   1.5465413753996778e-06   1.2874342565779699e-06   1.5905497132736201e-06   1.6274413386108690e-09   6.1137767531142945e-08   1.1198066791223149e-08   1.9158139901713592e-08   8.9698980212589181e-09   8.5528971622393780e-09   4.9747346422126499e-08   1.0479451815168814e-09   1.4774054750558723e-09   2.7980714505724707e-09   5.4304783663445427e-07   3.1575498265507487e-07   5.3381201967636677e-07   4.7598568546548895e-07   2.7633260141472411e-07   4.0464462300920851e-07   1.6597766114883835e-06   1.3066293228019511e-06   1.0412580176239928e-06   1.6575772439454056e-06   1.3927342177590946e-06   1.3100321159882004e-06   1.1936961825931965e-06   3.0343315618185027e-07   2.7775019348774637e-07   2.8204892702225948e-07   2.3395910965825928e-07   2.1486888863300268e-07   2.1805687802878979e-07   2.8609033591358527e-07   3.4541409691305647e-07   1.6870449995098128e-06   1.7269606327441033e-06   1.4494162681530881e-06   1.1719962890215256e-06   2.5788328667050564e-09   2.8338701493048079e-06   2.2891721462895559e-04   4.2017127027540264e-04   1.1438112719641711e-04   5.6591085822418922e-05   2.0545036507063624e-09   1.7176159171838805e-05   3.6234889566404898e-05   1.5271263796440567e-05   1.5475228203247589e-05   1.9930299396293629e-09   2.6345874878311931e-09   3.0317450798837518e-09   2.7113490735309602e-09   2.1098912031154943e-09   2.3414767952896778e-09   2.1950890086705301e-09   2.9367090567076096e-09   2.4243966818901099e-09   2.3365247126870654e-09   8.3065963733780881e-06   8.8945609589698150e-06   8.3368434350930344e-06   5.7132166454304248e-06   2.0404661214587658e-06   2.5420827141271383e-06   1.9444679986104824e-06   1.4943202746513790e-06   1.3526421090539042e-09   2.0967713532751890e-09   8.6374133418386199e-06   1.4933762585233319e-05   7.4058611285979817e-06   1.5057003289310940e-05   1.5952553741640255e-05   1.6626030208390446e-05   1.4320668763533636e-05   1.3505024277307834e-05   3.3705110466433950e-06   6.3020655244757437e-06   5.7866024326056719e-06   3.1731686542993825e-06   3.7526077177870187e-05   2.5293858820225680e-05   1.5816579485804545e-05   1.2095658271813983e-05   2.0415561620927037e-09   1.4530190284418665e-07   2.4969964201375432e-07   1.2999016654844876e-07   1.8649317364419041e-07   1.7902685469036823e-07   1.1372976000968700e-07   1.9048106792232243e-07   1.3412756845106467e-07   2.0795112669469298e-09   1.7680191953105601e-09   1.3570722390500945e-06   1.3986871812814149e-06   9.0875324070857904e-07   1.0450239993945700e-06   2.3871691834295803e-07   2.8748463233962961e-07   2.1767502722174956e-07   2.2444456970959380e-07   3.2867647592375194e-09   3.3172579616811612e-09   4.1971392415973960e-09   3.2236854734517073e-08   9.4130649032000834e-08   2.1811715219336824e-07   7.6991301015662894e-08   8.5519201262701526e-08   1.6242074295265733e-07   1.5815730273745260e-07   5.1839260515623388e-08   5.8969810625675733e-08   7.4902615359477817e-08   7.7177124471636154e-08   1.9742462123449153e-08   1.6331370190751715e-08   1.3280890094608663e-08   1.1244893820418605e-05   1.0888263187997354e-05   2.0611118244454050e-05   2.5258129549059544e-05   6.3242685106747516e-06   7.1528069196409394e-06   7.9908957192684131e-06   5.0707892413814647e-06   3.8699358929264916e-06   3.8942336179724482e-06   4.1460782681102468e-06   2.5161690563278777e-06   2.6296173140289222e-09   7.8659616239343547e-08   6.4944794524644277e-08   1.2294531464942389e-07   5.2273879886388017e-08   1.7891141380861735e-05   2.3820806979621495e-05   1.6566222168531592e-05   1.4761626447884906e-05   5.8420182978939661e-06   6.5412816807540118e-06   4.6550239005362661e-06   6.2112361735055056e-06   1.7112245066921005e-05   1.7963711086005102e-05   1.1973791354407107e-05   1.7507208524492595e-05   1.0956131739822933e-05   1.1146298049147152e-05   1.2918333697112210e-05   9.7162823510754847e-06   1.2498764543721611e-09   2.5271119586770975e-09   1.5027622135808769e-09   1.4579443778994963e-09   1.0228214374698696e-09   1.3283801125130533e-09   2.5424320458620523e-09   1.3985068773811428e-09   1.6420644168635359e-06   2.1078529070494512e-06   1.1213424507013056e-06   1.1840301708787759e-06   2.1154082189208689e-06   1.1018336004987947e-06   1.0982322608256179e-06   1.1348769521753758e-06   1.4150846098455431e-09   1.5133027868889726e-09   1.0062528516875432e-09   1.8270307761968645e-09   1.8960640834790184e-09   2.7272363783555085e-09   2.4356073091573373e-09   2.4795163187074859e-09   5.2620117865688457e-09   1.8865862807264744e-07   1.2243858471303419e-07   8.8554406612448751e-08   9.9269748552866955e-08   8.9528083082920156e-06   1.0845447002888179e-05   1.7611965366264938e-05   1.1348265485579737e-05   1.5335877984378622e-05   1.9846459508215423e-05   1.5405896400646523e-05   2.1563804961451069e-05   2.2251749557065861e-05   2.0076034000082899e-05   1.9256498426630403e-05   1.3838716238010277e-05   1.2947489726781466e-05   2.1611058926832513e-05   1.5404728738832361e-05   1.2024008268774737e-05   3.2721600165054877e-07   2.8954953722773488e-07   2.1130497393891829e-07   2.5884210936695758e-07   1.7234818457868956e-07   1.6548790508995406e-07   4.4629632533737230e-07   5.9772691926142607e-07   4.1684734977095938e-07   5.5347448767477510e-07   1.9439435817586559e-09   3.4266056155678980e-09   3.4320321592483438e-09   1.2797297305329599e-07   1.1326712914491517e-07   1.7114949107481167e-07   1.5191910749549171e-07   3.8361066240961585e-06   4.0646246321556758e-06   3.6500258019479278e-06   3.0113462830818312e-06   5.8158515457176668e-06   8.4413297031486253e-06   5.2326742526041726e-06   5.0781065518623789e-06   1.8087662756702660e-07   2.6453763921997613e-08   2.3436310862003168e-08   4.5084065762501884e-08   3.6641058669946407e-09   1.5836894351438110e-07   1.6701441457335354e-07   2.0476791448263789e-07   1.5340381364806927e-07   4.9711896953898195e-07   4.8376735668214505e-07   4.4328754876335821e-07   4.1494768962331754e-07   2.7256918060519649e-09   2.3240649321754744e-09   2.8674041030201782e-09   9.4615770872001090e-10   1.5108432146495940e-09   1.5808625753701576e-09   1.1496409538353435e-09   2.9969314165477837e-09   2.2889188207496416e-09   3.1614957182818477e-09   2.8434948986435884e-09   2.4522609258504333e-09   2.2920594006504194e-09   2.8073200508789582e-09   2.9618625910431187e-09   1.8386281711753389e-09   3.6279758172255196e-06   4.0227714815520478e-06   2.5697968804358485e-06   3.3640483370371612e-06   7.0353684694893499e-06   7.0743226456911840e-06   1.0864495941154917e-05   1.1886845560833746e-05   2.3728780696907201e-09   2.6651789724614590e-09   2.2437303418697325e-09   2.3494868824492376e-09   2.5006232968274565e-09   1.8123490350948114e-09   2.0725278167978299e-09   1.2126895348134029e-09   1.2807513812968125e-09   3.6271193738241468e-06   1.0279990863626950e-05   7.5827195918248660e-06   3.8886614598341976e-06   7.3936011267635628e-06   1.0928032033952628e-05   9.4372025874945345e-06   8.8095088341525334e-06   2.4788712522910079e-09   1.9299