<?xml version="1.0"?>
<VTKFile type="UnstructuredGrid"  version="0.1"  >
<UnstructuredGrid>
<Piece  NumberOfPoints="3069" NumberOfCells="5419">
<Points>
<DataArray  type="Float64"  NumberOfComponents="3"  format="ascii">-20 2.5 0  -20 0 0  -1 0 0  -0.9996988186962042 0.02454122852291233 0  -0.9987954562051724 0.04906767432741797 0  -0.9972904566786902 0.07356456359966773 0  -0.9951847266721968 0.09801714032956083 0  -0.99247953459871 0.1224106751992163 0  -0.989176509964781 0.1467304744553618 0  -0.9852776423889412 0.1709618887603012 0  -0.9807852804032304 0.1950903220161286 0  -0.9757021300385285 0.21910124015687 0  -0.970031253194544 0.2429801799032641 0  -0.9637760657954398 0.2667127574748985 0  -0.9569403357322088 0.2902846772544624 0  -0.9495281805930367 0.3136817403988914 0  -0.9415440651830207 0.3368898533922203 0  -0.9329927988347388 0.3598950365349883 0  -0.9238795325112867 0.3826834323650899 0  -0.9142097557035307 0.4052413140049899 0  -0.9039892931234433 0.427555093430282 0  -0.8932243011955152 0.4496113296546069 0  -0.8819212643483549 0.4713967368259979 0  -0.8700869911087113 0.4928981922297841 0  -0.857728610000272 0.5141027441932218 0  -0.8448535652497071 0.5349976198870972 0  -0.8314696123025453 0.5555702330196022 0  -0.8175848131515836 0.5758081914178454 0  -0.8032075314806448 0.5956993044924335 0  -0.7883464276266062 0.6152315905806269 0  -0.773010453362737 0.6343932841636455 0  -0.7572088465064846 0.6531728429537766 0  -0.7409511253549589 0.6715589548470186 0  -0.7242470829514668 0.6895405447370671 0  -0.7071067811865475 0.7071067811865476 0  -0.6895405447370669 0.7242470829514669 0  -0.6715589548470184 0.740951125354959 0  -0.6531728429537765 0.7572088465064847 0  -0.6343932841636454 0.7730104533627371 0  -0.6152315905806267 0.7883464276266063 0  -0.5956993044924334 0.8032075314806449 0  -0.5758081914178453 0.8175848131515837 0  -0.555570233019602 0.8314696123025455 0  -0.534997619887097 0.8448535652497072 0  -0.5141027441932217 0.8577286100002721 0  -0.492898192229784 0.8700869911087115 0  -0.4713967368259977 0.881921264348355 0  -0.4496113296546067 0.8932243011955152 0  -0.4275550934302819 0.9039892931234434 0  -0.4052413140049897 0.9142097557035307 0  -0.3826834323650897 0.9238795325112867 0  -0.3598950365349882 0.9329927988347388 0  -0.3368898533922199 0.9415440651830208 0  -0.3136817403988914 0.9495281805930367 0  -0.2902846772544622 0.9569403357322089 0  -0.2667127574748983 0.9637760657954398 0  -0.2429801799032639 0.970031253194544 0  -0.2191012401568697 0.9757021300385286 0  -0.1950903220161282 0.9807852804032304 0  -0.1709618887603012 0.9852776423889412 0  -0.1467304744553616 0.989176509964781 0  -0.1224106751992162 0.99247953459871 0  -0.09801714032956065 0.9951847266721969 0  -0.07356456359966733 0.9972904566786902 0  -0.04906767432741801 0.9987954562051724 0  -0.02454122852291214 0.9996988186962042 0  6.123233995736766e-17 1 0  0.02454122852291226 0.9996988186962042 0  0.04906767432741813 0.9987954562051724 0  0.07356456359966745 0.9972904566786902 0  0.09801714032956077 0.9951847266721968 0  0.1224106751992163 0.99247953459871 0  0.1467304744553617 0.989176509964781 0  0.1709618887603014 0.9852776423889412 0  0.1950903220161283 0.9807852804032304 0  0.2191012401568698 0.9757021300385286 0  0.242980179903264 0.970031253194544 0  0.2667127574748984 0.9637760657954398 0  0.2902846772544623 0.9569403357322089 0  0.3136817403988916 0.9495281805930367 0  0.3368898533922201 0.9415440651830208 0  0.3598950365349883 0.9329927988347388 0  0.3826834323650898 0.9238795325112867 0  0.4052413140049899 0.9142097557035307 0  0.4275550934302822 0.9039892931234433 0  0.4496113296546066 0.8932243011955153 0  0.4713967368259978 0.8819212643483549 0  0.4928981922297841 0.8700869911087113 0  0.5141027441932217 0.8577286100002721 0  0.5349976198870973 0.844853565249707 0  0.5555702330196023 0.8314696123025452 0  0.5758081914178453 0.8175848131515837 0  0.5956993044924335 0.8032075314806448 0  0.6152315905806268 0.7883464276266062 0  0.6343932841636455 0.773010453362737 0  0.6531728429537768 0.7572088465064845 0  0.6715589548470183 0.7409511253549591 0  0.6895405447370669 0.7242470829514669 0  0.7071067811865476 0.7071067811865475 0  0.724247082951467 0.6895405447370668 0  0.7409511253549591 0.6715589548470183 0  0.7572088465064846 0.6531728429537768 0  0.773010453362737 0.6343932841636455 0  0.7883464276266063 0.6152315905806268 0  0.8032075314806449 0.5956993044924334 0  0.8175848131515837 0.5758081914178453 0  0.8314696123025452 0.5555702330196022 0  0.8448535652497071 0.5349976198870972 0  0.8577286100002721 0.5141027441932217 0  0.8700869911087115 0.492898192229784 0  0.881921264348355 0.4713967368259976 0  0.8932243011955153 0.4496113296546065 0  0.9039892931234433 0.4275550934302821 0  0.9142097557035307 0.4052413140049899 0  0.9238795325112867 0.3826834323650898 0  0.932992798834739 0.3598950365349881 0  0.9415440651830208 0.3368898533922201 0  0.9495281805930367 0.3136817403988915 0  0.9569403357322088 0.2902846772544623 0  0.9637760657954398 0.2667127574748984 0  0.970031253194544 0.2429801799032639 0  0.9757021300385286 0.2191012401568698 0  0.9807852804032304 0.1950903220161282 0  0.9852776423889412 0.1709618887603012 0  0.989176509964781 0.1467304744553617 0  0.99247953459871 0.1224106751992162 0  0.9951847266721969 0.0980171403295606 0  0.9972904566786902 0.07356456359966743 0  0.9987954562051724 0.04906767432741801 0  0.9996988186962042 0.02454122852291229 0  1 0 0  20 0 0  20 2.5 0  0 2.5 0  -10 2.5 0  10 2.5 0  -10.5 0 0  -5 2.5 0  10.5 0 0  5 2.5 0  -5.75 0 0  5.75 0 0  -15.25 0 0  -15 2.5 0  15.25 0 0  15 2.5 0  -17.625 0 0  -17.5 2.5 0  17.5 2.5 0  17.625 0 0  12.5 2.5 0  12.875 0 0  -12.5 2.5 0  -12.875 0 0  -2.5 2.5 0  2.5 2.5 0  -8.125 0 0  -7.5 2.5 0  8.125 0 0  7.5 2.5 0  -3.375 0 0  3.375 0 0  -18.75 2.5 0  20 1.25 0  16.4375 1.19375 0  -16.25 2.5 0  13.75 2.5 0  -14.0625 0 0  -11.6875 0 0  11.6875 0 0  8.75 2.5 0  -8.75 2.5 0  6.9375 0 0  6.25 2.5 0  -6.25 2.5 0  -9.3125 0 0  -6.9375 0 0  9.3125 0 0  11.25 2.5 0  -11.25 2.5 0  3.75 2.5 0  4.5625 0 0  -4.5625 0 0  -3.75 2.5 0  -13.75 2.5 0  14.0625 0 0  -16.4375 0 0  -20 1.25 0  -18.8125 0 0  18.75 2.5 0  -18.21875 1.2359375 0  18.125 1.278125 0  -15.84375 1.2125 0  -14.375 1.30859375 0  14.65625 1.203125 0  2.1875 0 0  -2.1875 0 0  13.125 1.315625 0  3.125 1.315625 0  -3.125 1.315625 0  -12.28125 1.1890625 0  -5.15625 1.184375 0  11.09375 1.184375 0  5.625 1.325 0  -10.97262068800044 1.220713793599868 0  9.375 1.32734375 0  -6.875 1.32734375 0  -9.67626828410207 1.24449497187193 0  8.061334925608099 1.312208731402025 0  -8.188665074391901 1.312208731402025 0  -1.25 2.5 0  1.25 2.5 0  4.37465139623265 1.41327350462657 0  16.25 2.5 0  6.84375467392576 1.430449641528851 0  -1.846573640185365 1.334702047669377 0  1.846573640185365 1.334702047669377 0  -17.02955351149946 1.396129584721571 0  16.4375 0 0  18.8125 0 0  -13.31314667860176 1.511193493282891 0  -4.122005747945582 0.961844908681634 0  12.12799425205442 0.961844908681634 0  15.54930641305724 1.660405980876393 0  19.0578783583929 0.9559530595267438 0  8.71875 0.6864560603786576 0  -7.53125 0.6864560603786576 0  -0.6257799091428727 1.819008129832856 0  0.6257799091428734 1.819008129832855 0  6.291331569065717 0.7194652423646902 0  -19.11204717950418 0.9044926794710327 0  -4.488713231834613 1.772186102355655 0  11.76128676816539 1.772186102355655 0  -19.28185607205105 1.781856072051052 0  19.30868080343342 1.808680803433421 0  9.90625 0.6371857066656857 0  -6.34375 0.6371857066656857 0  3.796921710049233 0.7617406159238448 0  7.392020585015773 0.7480839107774819 0  -8.910372062800235 0.7929553447587234 0  10.2506781820361 1.451853913138859 0  -5.999321817963904 1.451853913138859 0  4.957643119381741 0.7716423099297361 0  17.29984375 0.8640625 0  15.41193625859067 0.8279888354083842 0  -13.72251704931534 0.7728002662082776 0  16.875 2.5 0  17.12178336313261 1.690954734835967 0  -11.64001625260176 1.74572103154608 0  2.477726735235857 0.7850262278604345 0  13.46875 0 0  13.765625 0.7802887470308788 0  -2.78125 0 0  -2.477726735235857 0.7850262278604346 0  -10.33383379274331 1.744431431923121 0  13.91957519050334 1.653419259628842 0  -15.08147780274903 0.8341506893754731 0  -15.14066649024666 1.671962869821843 0  -8.950686484882164 1.678622661163363 0  -17.55392917606836 0.794731598412167 0  -16.80247533599675 0.6688259240674158 0  -12.94289066923278 0.7766744225472476 0  -9.90625 0 0  -10.31601468672093 0.7730817089126454 0  -18.21875 0 0  -12.28125 0 0  -17.68515668569534 1.768907656575843 0  18.21875 0 0  10.85059123027421 1.880344717307101 0  -5.399408769725794 1.880344717307101 0  -3.738137326223278 1.749164834446819 0  -3.125 2.5 0  12.46235897590077 1.601301060091387 0  -11.09375 0 0  -11.61661448001209 0.7781698802173554 0  -15.625 2.5 0  -1.764022608759088 0.6027229563180789 0  1.59375 0 0  -8.125 2.5 0  8.125 2.5 0  8.713468311289519 1.727645658498745 0  9.375 2.5 0  -7.536531688710481 1.727645658498745 0  -6.875 2.5 0  14.375 2.5 0  17.78381794101733 1.874391370085592 0  18.59891476281433 1.80649740393129 0  -18.58835555265984 1.824268641341969 0  1.806126122135773 0.6510673837470153 0  -16.875 2.5 0  -16.36681393636619 1.755298393865037 0  -16.13072438662071 0.6014017614895231 0  -13.92460230791385 1.83195710210235 0  -14.40198779087891 0.6105385965811564 0  20 0.625 0  19.40625 0 0  14.6875 1.888836596385542 0  14.65625 0 0  12.78248197181444 0.6991460920542635 0  -3.467518028185561 0.6991460920542635 0  13.125 2.5 0  2.491957142932539 1.738660596534321 0  3.125 2.5 0  1.875 2.5 0  3.718973573227002 1.75927763286174 0  -2.491957142932539 1.738660596534321 0  -1.875 2.5 0  -9.375 2.5 0  6.2001972846108 1.772767401802766 0  5.625 2.5 0  5.027483518098582 1.760895488350309 0  5.625981449127788 0.6566963631252629 0  -12.30101114679273 1.859484693920165 0  9.742489932362783 1.884363450023167 0  -6.507510067637216 1.884363450023166 0  1.13492303295015 1.283502262067074
[...]
<CellData  Scalars="f_2729957"> 
<DataArray  type="Float64"  Name="f_2729957"  format="ascii">1.0197245911208146e-04   1.4755494336449293e-04   1.0762227023135043e-04   2.1327036603292502e-04   4.4001141609286955e-04   5.1395639382781453e-04   3.5669037037207063e-04   5.3998107675336661e-04   1.0136129275437871e-02   2.9591244533600626e-03   1.5902135735949396e-02   1.0239162111987690e-02   5.1541893782610824e-04   6.3807217818351964e-04   5.0434113075076119e-04   5.7212877288137303e-04   5.1553074956259455e-04   5.9712037787325247e-04   5.1815087700491248e-04   3.2076936475118021e-04   2.1939498645228480e-04   4.0261931887814611e-04   2.5071455712240000e-04   4.0705077167394545e-04   4.5175799280235266e-05   5.2931201351900768e-05   3.1407349711540988e-05   2.9692432272727138e-05   7.4332850413264757e-05   1.0612300585338561e-04   7.5185666771558694e-05   1.5501900284178163e-04   1.0798055196272443e-04   1.6726805602693947e-04   1.1019054667977823e-04   1.3794155839859387e-04   1.8354773279438208e-04   2.2659583711839859e-04   1.6207447552568584e-04   1.1557397874771562e-04   9.1912386423400911e-05   1.3526842114850270e-04   1.1138359536223454e-04   1.7250936357763685e-04   1.3056032575646840e-04   2.3098269777178907e-04   9.2602225611341152e-05   1.7269748400848290e-04   7.0490415573389622e-05   8.2828335694063232e-05   1.1684935209792900e-04   1.4776314654912134e-04   3.6832911235576337e-05   4.4364091932969732e-05   7.2133114927751664e-05   4.8754059473312622e-05   2.0481335034880799e-04   1.9723772383252667e-04   1.8988378146963863e-04   1.6315111220859292e-04   9.2772784611537117e-04   8.2310821351316312e-04   6.6613848892751765e-04   4.8625660457804465e-04   7.1469550057317970e-04   5.0712271690602211e-04   4.5010227193254351e-04   4.0558736300647455e-04   1.1372191524114550e-04   1.3248698464476461e-04   1.1621918084163535e-04   1.1892931402698816e-04   2.1790116633021799e-04   2.6164052561096723e-04   3.3957198925402049e-04   1.6377283924491444e-04   2.3783727798174810e-04   4.1500421683849607e-04   2.9353032081407015e-04   4.7468112136314714e-04   5.4846160599764961e-04   2.5192376218489059e-04   3.1073483862211225e-04   2.6995940363845931e-04   1.3720751273786931e-04   3.4939769057362675e-04   3.3894151079411078e-04   1.3654785462847546e-04   6.5648913557481538e-04   8.5652457649076582e-04   6.7229744558749993e-04   7.5939819837894001e-04   7.3606272687835688e-04   5.5373340162670232e-04   8.4760977781305218e-04   7.6202397189293095e-04   6.6197795471812802e-04   6.8227812483399788e-04   6.4754208882408359e-04   7.6211084524378954e-04   2.4900961124810862e-04   3.0044235917194657e-04   6.7560765489235416e-04   3.2230850987719108e-04   2.7201752876292043e-04   2.3551416549442934e-04   3.1383338071562094e-04   2.6228621780403856e-04   2.1213890634753902e-04   3.8757445295802120e-04   2.4555395390980214e-04   3.9214170557053785e-04   6.3914651715112894e-04   6.0738119815067029e-04   6.5314149112038165e-04   4.0481599392214011e-04   6.1735366643397025e-04   6.0692657079673023e-04   6.2089750858869332e-04   3.6874113090853961e-04   6.8369706655319138e-04   1.0056487304907792e-03   7.1627265732049459e-04   8.9948026238549444e-04   2.3979691662100102e-04   1.8561229019712589e-04   1.7564770906938849e-04   1.7655465260402154e-04   6.8908715249455747e-04   4.6902386186332257e-04   7.3122066346208256e-04   8.1659439434368197e-04   6.4465568293574046e-04   8.9905367691802177e-04   6.9462797054950401e-04   8.7622689834767329e-04   1.5762676165357212e-04   1.9609623542988242e-04   2.7407210383602191e-04   2.9820526182272790e-04   5.5489423594063411e-04   3.5751343089762656e-04   4.5209611777878453e-04   4.1080002434627203e-04   2.0554757831938247e-04   2.8394265729417078e-04   3.2444507191341091e-04   1.6015749536529324e-04   5.2361514417273208e-04   5.6125463582079181e-04   4.3117071141805818e-04   5.6708171779437037e-04   1.6076970388160267e-04   1.9097428391588476e-04   1.5263283543653222e-04   1.3771251309014815e-04   1.9286856044290840e-04   3.5337075763820872e-04   2.1458434658180636e-04   3.8765931283137614e-04   5.3170342937775776e-04   8.0792452309954893e-04   3.2765340548580174e-04   6.7628405715942008e-04   7.6832946975130079e-04   1.0783582036017316e-03   5.9447673650275812e-04   1.1233237893239049e-03   1.7882968641844401e-04   2.1851692396324593e-04   2.1080434833070812e-04   1.9915286495711667e-04   3.3234472159168011e-04   3.0835736008221100e-04   1.9322461535455833e-04   1.1736014775332101e-04   1.6288676725455243e-04   2.3975536566634825e-04   1.2308528589207701e-04   1.7280126805868670e-04   2.4481893647958512e-04   2.2896016670522775e-04   2.3112251658146600e-04   2.3596932324762015e-04   1.2917794050990592e-04   1.7049090820136023e-04   1.9935581021532709e-04   1.5484324141525670e-04   1.4515822205059752e-04   2.1263327269553517e-04   1.6657375440493963e-04   2.1426350187407471e-04   2.3804927441671453e-04   5.1679139449365861e-04   3.0718917376816102e-04   2.2566437698398004e-04   1.6220350918440051e-04   2.1816893366243952e-04   1.6024366203637845e-04   1.4197124607057905e-04   1.3012126929188732e-04   1.0734420380030022e-04   1.4987428480784664e-04   1.2497309413391918e-04   9.7357376444526250e-05   7.2981012994465162e-05   1.8766906110936524e-04   1.8478132636986610e-04   5.3238632965161962e-04   5.3219808587591218e-04   2.2729150614994131e-04   3.8549194588440613e-04   9.5398442584954671e-05   1.4866784530300208e-04   1.1182298300964049e-04   1.3646130708013977e-04   2.9555970364497577e-05   3.9428873650527454e-05   1.0522223830881976e-04   3.7762264430814954e-05   1.1363210556014858e-04   1.4639095267614561e-04   1.1757681189743929e-04   1.9277338042952423e-04   6.0065494557321787e-05   6.0195970724484392e-05   6.6527007786710304e-05   6.0207368952091949e-05   9.8375197059978774e-05   5.9699830864902147e-05   1.2611859759902947e-04   8.6595809140839407e-05   3.7581714172259684e-04   2.8502437279654395e-04   4.9731792542269588e-04   4.0279539087242406e-04   2.3573462309134775e-04   3.8625000299158298e-04   2.0920025676591307e-04   1.6107419313279135e-04   4.1805234454311070e-04   4.3686292606845396e-04   4.2392675748918117e-04   5.1150889510195917e-04   1.9130645264059791e-04   2.9302997087339529e-04   2.9120960341972441e-04   1.7940748867099061e-04   1.9885771552208753e-04   3.6206043637248338e-04   2.6893003627179542e-04   3.9241714502750855e-04   2.5271441069033690e-04   4.2598917616002997e-04   2.6311226718849612e-04   3.8966896423527173e-04   5.6371316557933071e-04   3.0397848754948022e-04   9.6905259592169142e-04   1.0335816512619491e-03   5.8350868533900673e-04   5.7074667870340881e-04   6.8462368988417397e-04   5.0980817338077138e-04   4.7776185037114394e-04   5.8979332673828933e-04   4.4245661139370886e-04   3.7547540339102447e-04   2.7038383574117919e-04   2.3209449324051038e-04   2.2849003720318652e-04   3.5454149022171901e-04   3.0123604363014081e-04   1.9806864930735046e-04   3.4896088037849509e-04   4.8843401539659518e-04   3.5164052004714311e-04   2.0204559199682128e-04   5.1566213486119064e-04   4.2604167325494121e-04   7.9392072298806724e-04   1.1359529038166196e-03   3.9187413560438179e-04   5.2687803435914665e-04   6.8528784930424827e-04   7.0959553048659729e-04   5.0780484802702343e-04   5.1308546038704981e-04   6.6965134596787821e-04   6.6164464918593122e-04   5.1831344600781722e-04   5.9226341946429022e-04   4.6356969393665976e-04   7.0347918977102877e-04   3.3700210759902136e-04   5.4273291598486845e-04   1.3596523941094708e-03   1.0221735397766057e-03   1.0370456690222388e-03   4.9602843821744749e-04   7.3771825667908906e-04   1.0460669126020213e-03   6.5469626547377563e-04   7.6075793155002346e-04   1.6158345902525075e-04   1.6573705408465874e-04   3.3106520307444893e-04   1.1067724014106355e-04   3.3239395000496771e-04   3.0332978302005669e-04   7.3502534555316924e-04   3.2878505117305972e-04   7.0140833619719036e-04   2.5900469184714903e-04   7.8508476085655096e-04   4.4657341882234136e-04   1.6249173770081356e-04   2.3371869648866039e-04   1.7638644565247673e-04   1.3477873544529139e-04   1.7308231769224853e-04   2.1416701424530559e-04   2.2305637333821471e-04   2.6426773298635948e-04   2.3667289720200860e-04   3.2367445990836988e-04   2.1642465683329240e-04   5.1290861633961158e-04   6.0439541438539349e-04   3.3147668036351876e-04   4.4909486837423437e-04   4.2280625719182027e-04   3.1203911147798029e-04   5.4308244200191637e-04   3.5590840295004914e-04   2.9693712470406380e-04   3.0306254269101305e-04   5.1890476258658030e-04   3.1594187735090490e-04   3.3964254390663352e-04   2.6325953530709732e-04   1.2220675155297529e-04   1.9038079750211841e-04   1.4120531051545836e-04   1.4155738345017404e-04   1.1438814246415234e-04   1.5401813999424671e-04   1.4478399479850071e-04   3.7045244475649770e-04   5.9807561838235476e-04   2.6202207986107841e-04   2.7700052621969874e-04   2.2188653157818487e-04   2.4343271565063096e-04   2.4405191436371594e-04   6.2433731266080456e-04   3.3310355532198508e-04   1.4115915698814126e-04   2.5013872852819476e-04   1.9337013340327920e-04   8.2872513171695103e-04   1.2784794189652027e-03   5.8713234444340043e-04   7.9440660908217022e-04   3.4672767708454643e-04   2.0015061711177803e-04   2.0106839413367225e-04   2.0214124719438055e-04   2.8311129080594276e-04   4.4155297936863914e-04   3.0747813816808215e-04   5.5628725871986751e-04   2.6669493927321931e-04   3.4529145788818691e-04   2.9159333654881278e-04   2.2380050407814407e-04   2.1537992475664818e-04   2.1133851711230479e-04   3.5841149843198557e-04   3.8489664728297632e-04   6.4069308791349128e-04   6.4959086702133636e-04   6.1389372102185248e-04   5.4095603264233826e-04   3.0793447446848896e-04   2.6817147016338098e-04   2.5591365397831353e-04   3.0170743111403359e-04   3.6168769349818734e-04   3.6790335054107852e-04   3.3249636330866321e-04   3.0697752148391025e-04   2.5121587400493635e-05   1.0670449792902352e-04   6.0635591125800759e-05   5.1103315047781071e-05   1.6562754935591306e-04   3.0243630466551238e-04   1.7265611164431671e-04   2.5972310046443018e-04   6.8329877473966835e-05   1.4288349352324211e-04   6.7359818908029187e-05   1.2075134959860394e-04   4.0274233072414137e-04   2.6521549548005864e-04   3.5256174031523104e-04   2.2533728881022033e-04   9.5683942271770713e-05   1.2688852622878344e-04   1.6137294956968204e-04   9.2336801410659573e-05   2.4934830643813283e-04   1.9629919029427487e-04   4.5751161077095396e-04   4.2631975822724996e-04   2.4906745976335733e-04   2.0454947822557955e-04   1.7537558238224114e-04   1.0524959957761021e-04   1.3928071016172089e-04   2.1540087590809858e-04   1.2375378973821161e-04   1.5859382949939130e-04   1.6257921718367547e-04   1.1658035596080152e-04   2.7051191484068414e-04   2.4935730672297261e-04   1.6663929326938171e-04   1.3758388549548752e-04   3.7823408537116063e-04   3.6769441389692634e-04   4.3965186477131069e-05   2.7541902441629586e-04   2.0138588683198068e-04   1.2623493316321421e-04   7.7067228555067205e-05   2.4064512272946610e-04   1.9742525140803617e-04   1.5466017905875091e-04   2.1360821339637696e-04   3.6911133505126108e-04   1.7024477878559746e-04   2.5503090681846592e-04   1.8602783889444620e-05   4.6693193237172203e-05   4.7057831759797736e-05   3.4724678540101651e-05   1.5675059309502764e-04   1.6350501099582140e-04   1.3502878547375750e-04   2.4997392744474921e-04   2.4229351965281587e-04   1.8503434843040683e-04   3.4246731508378746e-04   3.9512806428940205e-04   4.2026123970598097e-05   3.7749390794617235e-05   4.3957572526325603e-05   4.2771024414327440e-05   2.6523622291822177e-04   2.0337427237578022e-04   2.3415346080173200e-04   1.7398801862418680e-04   2.0615984753834701e-09   5.1998192836509421e-05   1.0668432775528115e-04   5.7811285594302343e-05   4.8559039889473628e-05   7.2926180334420437e-05   1.0260188728696347e-04   6.6373781880396971e-05   1.1659312440636179e-04   7.2579216770109076e-05   1.0538340584333209e-04   8.4738003288522382e-05   6.7847188468889112e-05   2.3327161265922585e-08   1.5566795656400636e-08   2.1760655724424284e-08   5.2177027925066727e-10   1.4851651181439272e-09   1.0232669296582229e-09   7.4531576140335172e-10   7.3703154544823247e-10   5.1678956486256545e-10   1.0045023012340210e-09   1.3957090215276273e-04   1.4257360794758600e-04   1.4132997487334529e-04   1.3404007588872931e-04   1.4960542862058201e-04   8.7171922889126431e-05   2.5817386537664577e-04   2.3506493086949149e-04   2.4697675894769851e-04   2.4956059216528254e-04   1.2948113975288123e-04   1.4892675083739076e-04   1.8865152127231422e-08   1.4174497150777861e-08   2.2746281368431225e-08   7.2342057125713481e-05   6.8932818238504835e-05   4.5482181933354743e-05   5.6089378549109950e-05   3.4037867679808662e-06   1.8044458732885412e-09   6.7233671678620939e-09   1.0171491872646339e-09   3.3442342837376472e-09   6.5354002904986789e-09   1.9549402166385756e-07   3.3756846484392969e-07   6.8104940022841468e-07   2.2001617355461364e-07   2.6777531271575525e-07   2.0217738258611258e-07   2.9152239731919830e-07   3.5894894352800473e-06   2.8284480118262176e-06   5.3468920012445364e-06   3.7394658837625388e-06   7.2179022290601742e-09   1.7240049463848295e-07   1.9111613099154102e-08   3.5456769785895148e-08   1.3861684282554146e-08   1.9204014406943916e-08   1.3559604249755153e-07   8.4966425077471870e-10   1.2330195902787396e-09   1.0274354905782068e-09   1.1359797302105181e-06   1.2929765368506398e-06   1.8604199455716217e-06   1.0699268655190002e-06   4.4328386097414894e-07   1.0388686709004566e-05   6.7800299151684398e-06   1.7619260785241185e-05   8.9818641837924693e-06   8.1877380885553568e-06   8.2382975635575375e-06   1.0416083730352999e-05   9.9314103743151404e-06   7.1194692149267382e-07   5.0410956169579821e-07   4.1276209052468811e-07   4.5042074787323219e-07   2.5053559531210219e-06   4.6637454304762161e-06   1.1645895864125082e-06   1.4483540276757900e-06   9.5565937130347797e-06   1.4786639672552637e-05   1.6963177656517427e-05   1.7361836640933425e-05   9.6748645389591609e-10   3.7422556397952425e-09   6.4487857824691293e-05   4.2892201243084838e-04   3.2956328801342290e-04   5.4150507025320003e-04   5.1990939063545187e-04   7.7908199637475537e-06   4.7235171685879893e-06   9.8366503398472504e-06   1.0344417316401230e-04   1.4906614044842776e-04   8.7153506599565043e-05   2.0709773078521679e-04   7.7485329165435114e-10   4.9581285564813094e-06   1.4109183688487417e-09   1.0228673987675195e-09   1.1517883439988846e-08   1.0196054907609407e-09   7.7424149163295651e-10   1.6715416954861169e-09   9.9330035546337344e-05   1.1145654305633445e-04   1.5658529128562037e-04   1.4003334611672875e-04   1.5967313976480802e-05   1.1341465725440948e-05   9.5920219360912362e-06   7.7991235167004884e-06   1.4405360121832079e-09   9.5641021441727735e-10   1.5913975991106052e-04   1.3306598541919094e-04   3.2508884621749843e-04   3.4657643677127331e-04   1.3280035537953236e-04   2.3403040348765429e-04   1.2584929569677130e-04   2.1066778676311955e-04   2.7495669987386524e-05   1.7313630719325199e-05   3.1620650557436628e-05   2.6240258269123091e-05   6.4180564414970500e-04   8.3020223028264358e-04   6.1362734426249508e-04   4.2147967301566950e-04   1.0606936143445980e-09   3.0543115092124870e-07   2.8757933686080391e-07   2.7033739348106574e-07   3.3426971265803565e-07   3.6984833478134817e-07   3.2977957829809809e-07   3.8308197352035889e-07   2.7300482250585241e-07   2.5718366727986816e-09   2.0372338987747259e-09   4.3192136607547234e-06   5.7483917582954288e-06   5.6041489376034307e-06   4.6615254168300042e-06   1.6074277058867911e-06   4.1760550542634886e-06   3.0618358086804677e-06   1.8167726145884752e-06   8.8520892147540739e-09   5.2689640739452823e-09   6.3486578345071193e-09   4.0999186196629145e-08   3.5494897934101201e-07   3.7789914527231340e-07   2.7635082026192929e-07   2.3046398715101710e-07   2.0223773436728561e-07   3.7245491318972650e-07   1.1790146146973437e-07   2.0839424135417167e-07   1.2878808489079545e-07   8.3479217158702842e-08   1.3717426132033745e-08   1.8660269248412042e-08   2.3334515183195231e-08   1.1850397740162133e-08   3.2096033740856123e-04   3.5590596672533059e-04   3.1952546915299448e-04   2.8680651458797040e-04   7.3853026479682338e-05   6.2986197148233363e-05   9.3312413410492814e-05   8.4585364105631473e-05   1.5360345843223162e-05   9.1243672748246136e-06   1.1281280276341692e-05   9.8291836690014897e-06   1.8639579019354939e-09   4.3765445130330879e-07   2.6285101162915227e-07   2.8066295631633383e-07   3.0730084648163368e-07   1.3951905972948617e-04   1.6027771506984195e-04   2.3124141951907852e-04   2.6186426887262788e-04   2.0971252776703957e-04   2.3138592006399311e-04   1.9930638443198663e-04   2.2936958527435325e-04   2.0911650190288844e-04   2.1004184591142183e-04   2.0338856873416053e-04   2.0207177680614205e-04   8.1602248979989629e-05   8.9902828189658787e-05   6.7834873140003483e-05   7.9740074517600944e-05   3.5722206032685617e-06   1.3166404776202105e-09   3.4438185189181667e-09   3.2304171683713009e-09   2.0861065761244053e-09   8.7314268838910498e-10   1.4313439587855419e-09   6.5339984517040724e-10   1.7072008909481451e-09   4.8275513086200412e-09   1.3721574192792493e-05   9.1223956204496982e-06   9.6268194747823883e-06   9.1293738410264288e-06   9.8481970999456798e-06   4.1445119472993966e-06   5.7558761627321947e-06   4.3852042552880740e-06   1.1894545445450039e-09   1.8340882550425729e-09   1.0119923651527091e-09   7.5220313138206446e-10   1.2942610799175813e-09   1.2706778002704563e-09   1.2371348017845341e-09   2.0819850028144041e-09   1.9568188216564693e-08   1.8670937702795527e-08   1.9844819842583714e-07   3.3984085521190830e-07   2.0392162894332081e-07   2.4144386567043760e-07   6.1572727603377846e-04   5.9187831046549544e-04   3.7775450086121194e-04   2.2640084776264145e-04   2.3778190605916352e-04   2.7393778912165938e-04   1.5680262029876349e-04   2.2416460211177876e-04   8.7159152975558595e-05   3.2656787529115243e-04   3.2030924217007887e-04   1.5114223476024111e-04   2.5594369710295719e-04   1.7139824657917357e-04   4.4390440564158994e-04   4.4156900614268678e-04   4.2819503593424581e-07   3.9116241992956721e-07   7.3988763918394628e-07   7.8180428233323731e-07   6.9839687023858021e-07   9.4074783634899127e-07   3.0573913111544286e-06   3.5115801068006986e-06   1.9055318832614384e-06   2.1732862598463255e-06   1.0052235403754110e-09   4.1187195401251636e-09   6.1420126283520419e-09   1.6192841165346535e-07   2.0539099397722455e-07   1.3388573651800412e-07   1.7319370218228227e-07   9.0035064078399478e-06   1.3604506501140893e-05   9.3970810821075977e-06   6.9239210755590682e-06   5.9624181165457511e-05   1.4784882559019480e-04   7.3138129341799305e-05   4.5019956226309842e-05   1.7948640422302661e-07   6.5187134485450010e-08   3.2620055496439002e-09   8.0147051731801742e-07   1.0933972224295519e-06   6.1557895550270376e-07   8.7635346854953080e-07   2.6028030244418804e-06   3.0236128389254647e-06   1.3842929677864619e-06   1.4037069384166860e-06   1.0500746510864777e-09   4.1434001490551137e-10   1.3060218704025049e-09   9.0528682194729792e-10   6.3273410542008360e-10   7.5545379996674360e-10   7.7355026589195581e-10   1.3622052638743070e-09   1.6146632048876929e-09   2.7674444130957045e-09   1.4867297157233016e-09   2.6990865047933753e-09   1.2498210483318717e-09   1.4108011914905975e-09   8.2836599011505279e-10   9.0447562375307997e-06   1.6910995422293284e-05   1.3874647590951375e-05   1.4453747488295772e-05   7.0722546751875049e-05   1.0657678424625719e-04   8.9922340263871018e-05   1.2086437075497360e-04   1.0377082578742985e-09   1.5811974718341198e-09   8.3053838306174362e-10   2.0004108472270850e-09   1.1381642112430453e-09   7.0961101795480213e-10   5.0682175422970219e-10   1.7849496607746408e-09   6.2163381057788944e-10   4.6744591499920392e-10   1.0871076455086420e-04   7.2302737800316189e-05   1.2764674709753491e-04   9.1514