<?xml version="1.0"?>
<VTKFile type="UnstructuredGrid"  version="0.1"  >
<UnstructuredGrid>
<Piece  NumberOfPoints="2401" NumberOfCells="4608">
<Points>
<DataArray  type="Float64"  NumberOfComponents="3"  format="ascii">0 0 0  0.001070538380698371 0 0  0.004277569313095364 0 0  0.009607359798386061 0 0  0.01703708685546806 0 0  0.02653493525245065 0 0  0.03806023374436157 0 0  0.05156362923366253 0 0  0.06698729810778931 0 0  0.08426519384873815 0 0  0.1033233298543955 0 0  0.1240800962605269 0 0  0.1464466094067445 0 0  0.1703270924499866 0 0  0.1956192854956637 0 0  0.2222148834902257 0 0  0.2500000000000299 0 0  0.2788556548905322 0 0  0.308658283817491 0 0  0.339280267348458 0 0  0.3705904774487813 0 0  0.4024548389919803 0 0  0.4347369038900211 0 0  0.467298435384978 0 0  0.5000000000000517 0 0  0.5327015646151253 0 0  0.5652630961100813 0 0  0.5975451610081212 0 0  0.6294095225513188 0 0  0.6607197326516399 0 0  0.6913417161826045 0 0  0.7211443451095605 0 0  0.7500000000000597 0 0  0.7777851165098603 0 0  0.8043807145044185 0 0  0.829672907550091 0 0  0.8535533905933287 0 0  0.8759199037395413 0 0  0.8966766701456674 0 0  0.9157348061513193 0 0  0.9330127018922625 0 0  0.9484363707663832 0 0  0.961939766255678 0 0  0.9734650647475827 0 0  0.9829629131445586 0 0  0.9903926402016341 0 0  0.9957224306869181 0 0  0.9989294616193084 0 0  1 0 0  0 0.02083333333333333 0  0.001070538380698371 0.02083333333333333 0  0.004277569313095364 0.02083333333333333 0  0.009607359798386061 0.02083333333333333 0  0.01703708685546806 0.02083333333333333 0  0.02653493525245065 0.02083333333333333 0  0.03806023374436157 0.02083333333333333 0  0.05156362923366253 0.02083333333333333 0  0.06698729810778931 0.02083333333333333 0  0.08426519384873815 0.02083333333333333 0  0.1033233298543955 0.02083333333333333 0  0.1240800962605269 0.02083333333333333 0  0.1464466094067445 0.02083333333333333 0  0.1703270924499866 0.02083333333333333 0  0.1956192854956637 0.02083333333333333 0  0.2222148834902257 0.02083333333333333 0  0.2500000000000299 0.02083333333333333 0  0.2788556548905322 0.02083333333333333 0  0.308658283817491 0.02083333333333333 0  0.339280267348458 0.02083333333333333 0  0.3705904774487813 0.02083333333333333 0  0.4024548389919803 0.02083333333333333 0  0.4347369038900211 0.02083333333333333 0  0.467298435384978 0.02083333333333333 0  0.5000000000000517 0.02083333333333333 0  0.5327015646151253 0.02083333333333333 0  0.5652630961100813 0.02083333333333333 0  0.5975451610081212 0.02083333333333333 0  0.6294095225513188 0.02083333333333333 0  0.6607197326516399 0.02083333333333333 0  0.6913417161826045 0.02083333333333333 0  0.7211443451095605 0.02083333333333333 0  0.7500000000000597 0.02083333333333333 0  0.7777851165098603 0.02083333333333333 0  0.8043807145044185 0.02083333333333333 0  0.829672907550091 0.02083333333333333 0  0.8535533905933287 0.02083333333333333 0  0.8759199037395413 0.02083333333333333 0  0.8966766701456674 0.02083333333333333 0  0.9157348061513193 0.02083333333333333 0  0.9330127018922625 0.02083333333333333 0  0.9484363707663832 0.02083333333333333 0  0.961939766255678 0.02083333333333333 0  0.9734650647475827 0.02083333333333333 0  0.9829629131445586 0.02083333333333333 0  0.9903926402016341 0.02083333333333333 0  0.9957224306869181 0.02083333333333333 0  0.9989294616193084 0.02083333333333333 0  1 0.02083333333333333 0  0 0.04166666666666666 0  0.001070538380698371 0.04166666666666666 0  0.004277569313095364 0.04166666666666666 0  0.009607359798386061 0.04166666666666666 0  0.01703708685546806 0.04166666666666666 0  0.02653493525245065 0.04166666666666666 0  0.03806023374436157 0.04166666666666666 0  0.05156362923366253 0.04166666666666666 0  0.06698729810778931 0.04166666666666666 0  0.08426519384873815 0.04166666666666666 0  0.1033233298543955 0.04166666666666666 0  0.1240800962605269 0.04166666666666666 0  0.1464466094067445 0.04166666666666666 0  0.1703270924499866 0.04166666666666666 0  0.1956192854956637 0.04166666666666666 0  0.2222148834902257 0.04166666666666666 0  0.2500000000000299 0.04166666666666666 0  0.2788556548905322 0.04166666666666666 0  0.308658283817491 0.04166666666666666 0  0.339280267348458 0.04166666666666666 0  0.3705904774487813 0.04166666666666666 0  0.4024548389919803 0.04166666666666666 0  0.4347369038900211 0.04166666666666666 0  0.467298435384978 0.04166666666666666 0  0.5000000000000517 0.04166666666666666 0  0.5327015646151253 0.04166666666666666 0  0.5652630961100813 0.04166666666666666 0  0.5975451610081212 0.04166666666666666 0  0.6294095225513188 0.04166666666666666 0  0.6607197326516399 0.04166666666666666 0  0.6913417161826045 0.04166666666666666 0  0.7211443451095605 0.04166666666666666 0  0.7500000000000597 0.04166666666666666 0  0.7777851165098603 0.04166666666666666 0  0.8043807145044185 0.04166666666666666 0  0.829672907550091 0.04166666666666666 0  0.8535533905933287 0.04166666666666666 0  0.8759199037395413 0.04166666666666666 0  0.8966766701456674 0.04166666666666666 0  0.9157348061513193 0.04166666666666666 0  0.9330127018922625 0.04166666666666666 0  0.9484363707663832 0.04166666666666666 0  0.961939766255678 0.04166666666666666 0  0.9734650647475827 0.04166666666666666 0  0.9829629131445586 0.04166666666666666 0  0.9903926402016341 0.04166666666666666 0  0.9957224306869181 0.04166666666666666 0  0.9989294616193084 0.04166666666666666 0  1 0.04166666666666666 0  0 0.0625 0  0.001070538380698371 0.0625 0  0.004277569313095364 0.0625 0  0.009607359798386061 0.0625 0  0.01703708685546806 0.0625 0  0.02653493525245065 0.0625 0  0.03806023374436157 0.0625 0  0.05156362923366253 0.0625 0  0.06698729810778931 0.0625 0  0.08426519384873815 0.0625 0  0.1033233298543955 0.0625 0  0.1240800962605269 0.0625 0  0.1464466094067445 0.0625 0  0.1703270924499866 0.0625 0  0.1956192854956637 0.0625 0  0.2222148834902257 0.0625 0  0.2500000000000299 0.0625 0  0.2788556548905322 0.0625 0  0.308658283817491 0.0625 0  0.339280267348458 0.0625 0  0.3705904774487813 0.0625 0  0.4024548389919803 0.0625 0  0.4347369038900211 0.0625 0  0.467298435384978 0.0625 0  0.5000000000000517 0.0625 0  0.5327015646151253 0.0625 0  0.5652630961100813 0.0625 0  0.5975451610081212 0.0625 0  0.6294095225513188 0.0625 0  0.6607197326516399 0.0625 0  0.6913417161826045 0.0625 0  0.7211443451095605 0.0625 0  0.7500000000000597 0.0625 0  0.7777851165098603 0.0625 0  0.8043807145044185 0.0625 0  0.829672907550091 0.0625 0  0.8535533905933287 0.0625 0  0.8759199037395413 0.0625 0  0.8966766701456674 0.0625 0  0.9157348061513193 0.0625 0  0.9330127018922625 0.0625 0  0.9484363707663832 0.0625 0  0.961939766255678 0.0625 0  0.9734650647475827 0.0625 0  0.9829629131445586 0.0625 0  0.9903926402016341 0.0625 0  0.9957224306869181 0.0625 0  0.9989294616193084 0.0625 0  1 0.0625 0  0 0.08333333333333333 0  0.001070538380698371 0.08333333333333333 0  0.004277569313095364 0.08333333333333333 0  0.009607359798386061 0.08333333333333333 0  0.01703708685546806 0.08333333333333333 0  0.02653493525245065 0.08333333333333333 0  0.03806023374436157 0.08333333333333333 0  0.05156362923366253 0.08333333333333333 0  0.06698729810778931 0.08333333333333333 0  0.08426519384873815 0.08333333333333333 0  0.1033233298543955 0.08333333333333333 0  0.1240800962605269 0.08333333333333333 0  0.1464466094067445 0.08333333333333333 0  0.1703270924499866 0.08333333333333333 0  0.1956192854956637 0.08333333333333333 0  0.2222148834902257 0.08333333333333333 0  0.2500000000000299 0.08333333333333333 0  0.2788556548905322 0.08333333333333333 0  0.308658283817491 0.08333333333333333 0  0.339280267348458 0.08333333333333333 0  0.3705904774487813 0.08333333333333333 0  0.4024548389919803 0.08333333333333333 0  0.4347369038900211 0.08333333333333333 0  0.467298435384978 0.08333333333333333 0  0.5000000000000517 0.08333333333333333 0  0.5327015646151253 0.08333333333333333 0  0.5652630961100813 0.08333333333333333 0  0.5975451610081212 0.08333333333333333 0  0.6294095225513188 0.08333333333333333 0  0.6607197326516399 0.08333333333333333 0  0.6913417161826045 0.08333333333333333 0  0.7211443451095605 0.08333333333333333 0  0.7500000000000597 0.08333333333333333 0  0.7777851165098603 0.08333333333333333 0  0.8043807145044185 0.08333333333333333 0  0.829672907550091 0.08333333333333333 0  0.8535533905933287 0.08333333333333333 0  0.8759199037395413 0.08333333333333333 0  0.8966766701456674 0.08333333333333333 0  0.9157348061513193 0.08333333333333333 0  0.9330127018922625 0.08333333333333333 0  0.9484363707663832 0.08333333333333333 0  0.961939766255678 0.08333333333333333 0  0.9734650647475827 0.08333333333333333 0  0.9829629131445586 0.08333333333333333 0  0.9903926402016341 0.08333333333333333 0  0.9957224306869181 0.08333333333333333 0  0.9989294616193084 0.08333333333333333 0  1 0.08333333333333333 0  0 0.1041666666666667 0  0.001070538380698371 0.1041666666666667 0  0.004277569313095364 0.1041666666666667 0  0.009607359798386061 0.1041666666666667 0  0.01703708685546806 0.1041666666666667 0  0.02653493525245065 0.1041666666666667 0  0.03806023374436157 0.1041666666666667 0  0.05156362923366253 0.1041666666666667 0  0.06698729810778931 0.1041666666666667 0  0.08426519384873815 0.1041666666666667 0  0.1033233298543955 0.1041666666666667 0  0.1240800962605269 0.1041666666666667 0  0.1464466094067445 0.1041666666666667 0  0.1703270924499866 0.1041666666666667 0  0.1956192854956637 0.1041666666666667 0  0.2222148834902257 0.1041666666666667 0  0.2500000000000299 0.1041666666666667 0  0.2788556548905322 0.1041666666666667 0  0.308658283817491 0.1041666666666667 0  0.339280267348458 0.1041666666666667 0  0.3705904774487813 0.1041666666666667 0  0.4024548389919803 0.1041666666666667 0  0.4347369038900211 0.1041666666666667 0  0.467298435384978 0.1041666666666667 0  0.5000000000000517 0.1041666666666667 0  0.5327015646151253 0.1041666666666667 0  0.5652630961100813 0.1041666666666667 0  0.5975451610081212 0.1041666666666667 0  0.62
[...]
<PointData  Scalars="f_15444589"> 
<DataArray  type="Float64"  Name="f_15444589"  format="ascii">1.0242381516654183e+01  1.0244935075215196e+01  1.0274753704479149e+01  1.0314517333151844e+01  1.0382393531470594e+01  1.0479333300741681e+01  1.0580447784847888e+01  1.0675737994227493e+01  1.0755997104601988e+01  1.0787261703767545e+01  1.0771874932302746e+01  1.0692863319601603e+01  1.0563784698244897e+01  1.0347368582212853e+01  1.0091502280383628e+01  9.7554508283725490e+00  9.4665475776589130e+00  9.0814858019739493e+00  8.6721005876691812e+00  8.2772208940706928e+00  7.8788355974771802e+00  7.4107419391102995e+00  6.9540474077106458e+00  6.4755041031483254e+00  6.0229689813228395e+00  5.5812232336367318e+00  5.1704430488170452e+00  4.7502236732850243e+00  4.3567821090117942e+00  3.9820156766825181e+00  3.6228894921958696e+00  3.2987083628474356e+00  3.0351561138110270e+00  2.8573887862972636e+00  2.7247085800140063e+00  2.6416616983498291e+00  2.6001637707114988e+00  2.5948654945040799e+00  2.6102899126310053e+00  2.6325916509468930e+00  2.6598591954681554e+00  2.6838901207422614e+00  2.6972451433037961e+00  2.7018826944748096e+00  2.7018647669022169e+00  2.6991841968832584e+00  2.6955776011026589e+00  2.6936762268169110e+00  2.6954677622606393e+00  1.0332302433462646e+01  1.0333896355947807e+01  1.0348870023679925e+01  1.0401261426752910e+01  1.0472803305566378e+01  1.0568775157108599e+01  1.0679965750296136e+01  1.0777516729172605e+01  1.0849035062163939e+01  1.0876280207102617e+01  1.0844393695376960e+01  1.0766278784589145e+01  1.0620295619631900e+01  1.0415937157039551e+01  1.0148220785405790e+01  9.8114307292443517e+00  9.4868722559232470e+00  9.1153751565313694e+00  8.7220792022620444e+00  8.2799966974569461e+00  7.8922624258227989e+00  7.4583458377214669e+00  6.9827235854928134e+00  6.5003669988966797e+00  6.0302929595727104e+00  5.5895021132361089e+00  5.1605483301436390e+00  4.7617635722154539e+00  4.3757590193576235e+00  3.9994863332034383e+00  3.6418643709735590e+00  3.3084733045702492e+00  3.0395599114864540e+00  2.8575208626089776e+00  2.7281551249483273e+00  2.6457685965666613e+00  2.6077689317828563e+00  2.6083498322684782e+00  2.6262053776017726e+00  2.6554684569258242e+00  2.6896929974593089e+00  2.7177579591557808e+00  2.7390560630792202e+00  2.7575845545484228e+00  2.7684646529444357e+00  2.7696985554380809e+00  2.7711035495726906e+00  2.7714114559305778e+00  2.7707970091727372e+00  1.0492127997368339e+01  1.0497678885415398e+01  1.0515846063009212e+01  1.0566032462740026e+01  1.0652113995408216e+01  1.0758292548372557e+01  1.0867685635408831e+01  1.0963251639195292e+01  1.1023175613083369e+01  1.1034714654563411e+01  1.0989794381585762e+01  1.0900199756057887e+01  1.0739209409524022e+01  1.0529435477305894e+01  1.0229191087627306e+01  9.9379465505318940e+00  9.5505426876245245e+00  9.1519683751730643e+00  8.7679328571024193e+00  8.3418710405216974e+00  7.9091804983493761e+00  7.4921161435842842e+00  7.0643302153038876e+00  6.5212853654127674e+00  6.0668923659269911e+00  5.6019034882790217e+00  5.1654132366234720e+00  4.7671947584222236e+00  4.4035420029404788e+00  4.0223126418258666e+00  3.6832822338727693e+00  3.3502110519356560e+00  3.0693274315519008e+00  2.8770148739211199e+00  2.7459952903214289e+00  2.6744904390667124e+00  2.6497607428513601e+00  2.6661002120433048e+00  2.7018322023651509e+00  2.7469558110064329e+00  2.8012796831419222e+00  2.8545205402889597e+00  2.8943047448701424e+00  2.9228959860368406e+00  2.9438480800115210e+00  2.9608697897430147e+00  2.9693231787673118e+00  2.9721466283816818e+00  2.9727319860506762e+00  1.0678786629591951e+01  1.0681294445345637e+01  1.0702246938324441e+01  1.0753300520202629e+01  1.0837969563882975e+01  1.0934455755249152e+01  1.1041116525286705e+01  1.1126056240444136e+01  1.1173291572610919e+01  1.1181918975384502e+01  1.1137810201195091e+01  1.1038021971360298e+01  1.0878984033282194e+01  1.0660905894734503e+01  1.0338279064813136e+01  1.0024793893624324e+01  9.6171400901429056e+00  9.2232888458691313e+00  8.8063715360102268e+00  8.4004478959167521e+00  7.9822978346477544e+00  7.5116824573143122e+00  7.0814885577472220e+00  6.5876777271313021e+00  6.0768047474655091e+00  5.6119452695460286e+00  5.1731923327832599e+00  4.7851101145284645e+00  4.4099677930433101e+00  4.0486552851106570e+00  3.7189885047596247e+00  3.3980043565492042e+00  3.1239010497927477e+00  2.9145783241693120e+00  2.7972611358048205e+00  2.7453165656927259e+00  2.7360069443301178e+00  2.7692332929654557e+00  2.8243015840583601e+00  2.9033241176596114e+00  2.9832455170140331e+00  3.0542570042126544e+00  3.1176708467831378e+00  3.1788422884611522e+00  3.2235332978879692e+00  3.2503371776410015e+00  3.2656407481384013e+00  3.2715945500687789e+00  3.2717167752230947e+00  1.0836372823213141e+01  1.0843642584300568e+01  1.0865641207843810e+01  1.0911769636742218e+01  1.0991755816192063e+01  1.1083885320938288e+01  1.1191001985821133e+01  1.1266633472668591e+01  1.1318013718711855e+01  1.1328478210580402e+01  1.1262017145778563e+01  1.1157442868154147e+01  1.0983174198144509e+01  1.0759810977348431e+01  1.0483589035706954e+01  1.0078226134020742e+01  9.6866609345853867e+00  9.2591679655724235e+00  8.8834439351844097e+00  8.4484502971804307e+00  8.0199732872127107e+00  7.5969378229013325e+00  7.0753494621528059e+00  6.6026422990660922e+00  6.0854907840738548e+00  5.6278814828930948e+00  5.1900312238028112e+00  4.7914962573175233e+00  4.4130182045545023e+00  4.0668046500013295e+00  3.7459593463847072e+00  3.4525727436486537e+00  3.1962547869948996e+00  2.9893645575429741e+00  2.8756836182567911e+00  2.8414962060125499e+00  2.8700384098324303e+00  2.9380589567511382e+00  3.0229691066163182e+00  3.1367901273299532e+00  3.2510954563057126e+00  3.3503477115144742e+00  3.4358917548769510e+00  3.5076923955040202e+00  3.5626316234158639e+00  3.6051225001686906e+00  3.6291830620580652e+00  3.6386562330371977e+00  3.6382196530750366e+00  1.1001379706808121e+01  1.0999662605791990e+01  1.1019423032960075e+01  1.1064945047253149e+01  1.1137104438290011e+01  1.1221296892192788e+01  1.1309502692399215e+01  1.1387360476025389e+01  1.1437491581192518e+01  1.1440526460876548e+01  1.1392619060828755e+01  1.1263658598242175e+01  1.1081952845758662e+01  1.0853257766528246e+01  1.0561782261390530e+01  1.0167869270246372e+01  9.7516428591110405e+00  9.3130433789720577e+00  8.9349815654254812e+00  8.5275433532941314e+00  8.0481269108597733e+00  7.6047780994689056e+00  7.1031387149450937e+00  6.5823773912607848e+00  6.0919987131035827e+00  5.6311961457971842e+00  5.1940608876199246e+00  4.8068510931596666e+00  4.4165909668820094e+00  4.0746495498684752e+00  3.7616447207744907e+00  3.5014710001150195e+00  3.2648960676141963e+00  3.0954400032027425e+00  2.9974502357543331e+00  2.9918990417010125e+00  3.0435560815611966e+00  3.1569415108902512e+00  3.2797813536809626e+00  3.4291113630621011e+00  3.5651979348407465e+00  3.6821996904650462e+00  3.7937341292323472e+00  3.9014253502797023e+00  3.9758743793531321e+00  4.0162677007983367e+00  4.0353760536855816e+00  4.0439064953850172e+00  4.0448265309611653e+00  1.1149282374220100e+01  1.1149789841236627e+01  1.1164242001334978e+01  1.1204290081342831e+01  1.1268145590615301e+01  1.1336911054921773e+01  1.1418578284480500e+01  1.1490466595289258e+01  1.1528405400409010e+01  1.1534396605573127e+01  1.1461578928579819e+01  1.1357411040584719e+01  1.1160582495906928e+01  1.0909417310950069e+01  1.0609562952535303e+01  1.0215373863718980e+01  9.7907675125831162e+00  9.4054876039134374e+00  8.9858962504291835e+00  8.5652563177655150e+00  8.1023707289491558e+00  7.5832686028163314e+00  7.0854051016974013e+00  6.5893642708202247e+00  6.0870327483039688e+00  5.6140404605354366e+00  5.1890984542202396e+00  4.8138966216379391e+00  4.4243060177198617e+00  4.0843266351369696e+00  3.7812840896794877e+00  3.5407865106348653e+00  3.3439220487860801e+00  3.2081272271353134e+00  3.1490153116458535e+00  3.1721917418638625e+00  3.2631802083863342e+00  3.4182578962351795e+00  3.5775723393692891e+00  3.7595035827873544e+00  3.9291554796572994e+00  4.0576074250140675e+00  4.1904594724933606e+00  4.3117057669334438e+00  4.3866862928969796e+00  4.4422122043702963e+00  4.4795385922192565e+00  4.4921902222058527e+00  4.4915027840122699e+00  1.1298630006692679e+01  1.1298931309224630e+01  1.1313655663574554e+01  1.1352303986670245e+01  1.1396250800730499e+01  1.1458265301300973e+01  1.1522375215009559e+01  1.1570790285972066e+01  1.1594543772664926e+01  1.1586807057577717e+01  1.1512535928879542e+01  1.1403090393562486e+01  1.1223194862769983e+01  1.0962237949023704e+01  1.0638038340859662e+01  1.0262818617019308e+01  9.8416918468351486e+00  9.4427182503978688e+00  9.0264005251307484e+00  8.5840534046414216e+00  8.0933748730732269e+00  7.5699867828147482e+00  7.0529747534028084e+00  6.5921769040497837e+00  6.0726382125165275e+00  5.5845499054139287e+00  5.1708347851749838e+00  4.7958220003806833e+00  4.4218773251185732e+00  4.1046235064235965e+00  3.8176450838763438e+00  3.5944558514720053e+00  3.4168438418436580e+00  3.3307913995855225e+00  3.3062438125489066e+00  3.3709843464936502e+00  3.5139745596440166e+00  3.6590377439622022e+00  3.8417478201532482e+00  4.0818069375229458e+00  4.2946150547370694e+00  4.4463381928483185e+00  4.6214206228144175e+00  4.7516590238844687e+00  4.8298098710446302e+00  4.8888433882715434e+00  4.9281645422348177e+00  4.9392050826328706e+00  4.9398558703536901e+00  1.1446180665584730e+01  1.1447080160800814e+01  1.1456935629264493e+01  1.1481205450219642e+01  1.1513533246167643e+01  1.1554263287311869e+01  1.1596434990530611e+01  1.1622029237820231e+01  1.1634383474553641e+01  1.1605218524068732e+01  1.1544438587778902e+01  1.1418186300286958e+01  1.1228227861219581e+01  1.0987588551862958e+01  1.0673625007568784e+01  1.0283786261057159e+01  9.8932224241276181e+00  9.4603035809113543e+00  9.0344971104546534e+00  8.5638637497755106e+00  8.0602267739760958e+00  7.5559420582005687e+00  7.0261195035879735e+00  6.5521128567361773e+00  6.0247188385468071e+00  5.5680339604581235e+00  5.1478624159841369e+00  4.7642264770862255e+00  4.4171491160688028e+00  4.1191554773734600e+00  3.8497053857900601e+00  3.6578508430074463e+00  3.5203607454146040e+00  3.4494986035567834e+00  3.4604015531822374e+00  3.5759661158545155e+00  3.7562378208769069e+00  3.9445721764637787e+00  4.1666617518771902e+00  4.4080296666115810e+00  4.6174652138506964e+00  4.7942531499530654e+00  4.9948899107137770e+00  5.1372131114513628e+00  5.2371065630379388e+00  5.3173939808596868e+00  5.3659747928015129e+00  5.3791523471173015e+00  5.3763562296675005e+00  1.1598157057869562e+01  1.1599061078615703e+01  1.1602889295266298e+01  1.1611302964047834e+01  1.1626958887347715e+01  1.1647968083327202e+01  1.1664412621435414e+01  1.1669867670127683e+01  1.1660829367172914e+01  1.1616468637211105e+01  1.1534273205840934e+01  1.1413352227542793e+01  1.1214619799985096e+01  1.0967804492378045e+01  1.0654162484392090e+01  1.0295310718606792e+01  9.8824825395950828e+00  9.4597290184720340e+00  8.9991849382142046e+00  8.5189907071116338e+00  8.0187686533866458e+00  7.5033527169167948e+00  6.9848828778791860e+00  6.4874801649442242e+00  5.9801040649106110e+00  5.5232117708368094e+00  5.1130419535771710e+00  4.7345622291077678e+00  4.4129818795663400e+00  4.1292737973348626e+00  3.8917568235049567e+00  3.7189140336347157e+00  3.6122031696492676e+00  3.5820602122892602e+00  3.6350341942484850e+00  3.7774526342224175e+00  3.9819167086611347e+00  4.2096502513951295e+00  4.4717030986128341e+00  4.7421813129362320e+00  4.9596004999474204e+00  5.1567502012319082e+00  5.3563959832856849e+00  5.4997227078811859e+00  5.6188279825805196e+00  5.7140207449531610e+00  5.7570091974266617e+00  5.7742570305301877e+00  5.7793880612560766e+00  1.1739597384648281e+01  1.1739208701200653e+01  1.1739917784191404e+01  1.1742232356395435e+01  1.1744291157113656e+01  1.1736853228066041e+01  1.1728747535414326e+01  1.1704225138520131e+01  1.1670773288671585e+01  1.1611269836996001e+01  1.1516781297380676e+01  1.1362545932879430e+01  1.1167093679549065e+01  1.0897783634787338e+01  1.0606705503727524e+01  1.0241831243856176e+01  9.8394641484418237e+00  9.4174718642042272e+00  8.9567825348573500e+00  8.4553338288636404e+00  7.9351568530967969e+00  7.4301379492605797e+00  6.9215142605620104e+00  6.4138943204175440e+00  5.9182169216629150e+00  5.4626091944324671e+00  5.0673224294574375e+00  4.7184897464004782e+00  4.3999138232249750e+00  4.1433688196668097e+00  3.9302835863755408e+00  3.7873568001759015e+00  3.7145082534639893e+00  3.7180646377637330e+00  3.8138716739204446e+00  3.9815413013506031e+00  4.1944546006031516e+00  4.4525174720442893e+00  4.7461009382846715e+00  5.0369097198103088e+00  5.2759370783702089e+00  5.5024327177750889e+00  5.7219879010687453e+00  5.8749942315017361e+00  6.0073795024171224e+00  6.1057643814159368e+00  6.1456462515855366e+00  6.1737813948109954e+00  6.1750054727652115e+00  1.1869153949554601e+01  1.1870141198372105e+01  1.1865686340118659e+01  1.1858235034525455e+01  1.1845172340099401e+01  1.1817962972818059e+01  1.1780220782665555e+01  1.1730383133666731e+01  1.1658284012611187e+01  1.1579818680713226e+01  1.1451630317463675e+01  1.1283624681151066e+01  1.1062818347267951e+01  1.0816746122036401e+01  1.0520928274146414e+01  1.0145346206551878e+01  9.7400239785777316e+00  9.3355076626843712e+00  8.8551643189143441e+00  8.3415938502984961e+00  7.8220056275751295e+00  7.3267815465599373e+00  6.8402467899988988e+00  6.3263607110129438e+00  5.8374235152583260e+00  5.3905745211630611e+00  5.0336067678854155e+00  4.6869579575808196e+00  4.3809224997298539e+00  4.1624728221425000e+00  3.9761897457200805e+00  3.8714776191637887e+00  3.8326519517527622e+00  3.8643912666722864e+00  3.9921088216476459e+00  4.1963169109233931e+00  4.4461042543333713e+00  4.7330914582185484e+00  5.0382522948059716e+00  5.3306596252964420e+00  5.6023570027157126e+00  5.8513143176903286e+00  6.0952478132104364e+00  6.2635107703762527e+00  6.4030866441296466e+00  6.5127471999587261e+00  6.5559375409503904e+00  6.5774868313539647e+00  6.5782556292815624e+00  1.1983490547625207e+01  1.1983928040580194e+01  1.1976091081819717e+01  1.1961977619329730e+01  1.1924350611997703e+01  1.1878822415096129e+01  1.1814992726232118e+01  1.1730842914129099e+01  1.1623709442672149e+01  1.1522393841028398e+01  1.1366448344635819e+01  1.1186371839294271e+01  1.0948241266535730e+01  1.0695257670608077e+01  1.0381724081212084e+01  9.9972663613262682e+00  9.6073081233372584e+00  9.1969925443796186e+00  8.7262085417964279e+00  8.2085374202232977e+00  7.7036190618489488e+00  7.2097517139470222e+00  6.7215090714495629e+00  6.2155230696521828e+00  5.7311196383831273e+00  5.3220500422683301e+00  4.9780275161343299e+00  4.6384008596363815e+00  4.3679678547218286e+00  4.1816518253289887e+00  4.0346352690014573e+00  3.9534690087434008e+00  3.9497318388361053e+00  4.0272351782821811e+00  4.1858278555800856e+00  4.4272487057710590e+00  4.7135425450183766e+00  5.0395507564326953e+00  5.3624323893245913e+00  5.6481019137178032e+00  5.9405979551904862e+00  6.2272987785037826e+00  6.4731708696869221e+00  6.6580237261017183e+00  6.8066627329663731e+00  6.9218234763049162e+00  6.9756102811998186e+00  6.9942429315967916e+00  6.9927920425646573e+00  1.2084436435518930e+01  1.2083629482723904e+01  1.2075637440318637e+01  1.2045301623118664e+01  1.1992734415464765e+01  1.1926245236926563e+01  1.1831964820191660e+01  1.1713612670585277e+01  1.1588539925042431e+01  1.1443172398670036e+01  1.1264782157229384e+01  1.1038218176695271e+01  1.0793113658068854e+01  1.0514311624464192e+01  1.0177343822103699e+01  9.7844646211263697e+00  9.4148490846773871e+00  9.0037930943876177e+00  8.5459310169865024e+00  8.0406664489913435e+00  7.5441625862839503e+00  7.0589476124268220e+00  6.5727736638152194e+00  6.0780516265751716e+00  5.6233229444182360e+00  5.2402313126275031e+00  4.9060260080226490e+00  4.5889997690824069e+00  4.3661997984695260e+00  4.2010479790188100e+00  4.0915158391200910e+00  4.0462226034090483e+00  4.0680855077043114e+00  4.1724669130345600e+00  4.3691920567577478e+00  4.6364548927847427e+00  4.9540518295747011e+00  5.3003986555170268e+00  5.6570878484585565e+00  6.0105058430978993e+00  6.3634750104813786e+00  6.6471448055774385e+00  6.8812795304579959e+00  7.0591872215263338e+00  7.2476862284921078e+00  7.3459288918589465e+00  7.4078090653844866e+00  7.4363179801992736e+00  7.4372648483961736e+00  1.2154846727997638e+01  1.2154768739196848e+01  1.2145900028432129e+01  1.2113838714198609e+01  1.2043046803298086e+01  1.1956335463191067e+01  1.1834455337297033e+01  1.1685977450281761e+01  1.1532842742839971e+01  1.1346728807020787e+01  1.1124992449015801e+01  1.0866463094209518e+01  1.0593346980826546e+01  1.0273102675300430e+01  9.9264433930064495e+00  9.5569956967197900e+00  9.1904430852167742e+00  8.7922910321101941e+00  8.3393584457198191e+00  7.8512217737276764e+00  7.3571391389805676e+00  6.8660163232044846e+00  6.3967265238843032e+00  5.9311163935937037e+00  5.5019228619186800e+00  5.1390206244806853e+00  4.8238440981046553e+00  4.5538378320922535e+00  4.3628962304428587e+00  4.2352705972670686e+00  4.1491893275727625e+00  4.1465900179454689e+00  4.2022608158399350e+00  4.3304548958302780e+00  4.5590419809931975e+00  4.8491133919435461e+00  5.2183190858105064e+00  5.5649893666243440e+00  5.9539360848402101e+00  6.3163673526849946e+00  6.6786550646476233e+00  6.9349059478009423e+00  7.2269384450212666e+00  7.4334859071191461e+00  7.6168250117226455e+00  7.7155141042717386e+00  7.7891460236109866e+00  7.8198005075067094e+00  7.8212260483607707e+00  1.2205115413580451e+01  1.2203400327509687e+01  1.2186473841250235e+01  1.2148567810291278e+01  1.2078505151176829e+01  1.1957434064312208e+01  1.1808664081091834e+01  1.1641956655146078e+01  1.1453076815168323e+01  1.1221232116302639e+01  1.0957966087662449e+01  1.0682297231686709e+01  1.0366665979631520e+01  1.0039238280546559e+01  9.6769923723525562e+00  9.3147129859330455e+00  8.9314353799544026e+00  8.5372468788861298e+00  8.0884570950472749e+00  7.6077841009683214e+00  7.1367503632851932e+00  6.6710704346452099e+00  6.2148215875430539e+00  5.7761076154511342e+00  5.3677204668760643e+00  5.0325397355575783e+00  4.7498659743472675e+00  4.5213768649193478e+00  4.3680944718328423e+00  4.2702934166289568e+00  4.2235294672834129e+00  4.2491566729819805e+00  4.3415880866444336e+00  4.5133908526287616e+00  4.7789952448311821e+00  5.0880703203756061e+00  5.4674355936532670e+00  5.8371703045901926e+00  6.2458218674242287e+00  6.6286992135421690e+00  6.9851189222991970e+00  7.2925873387136200e+00  7.5777420833733578e+00  7.8009773321740612e+00  7.9712661536202569e+00  8.0737325413783338e+00  8.1458107660326746e+00  8.1703360951572623e+00  8.1725079194935617e+00  1.2237882396147963e+01  1.2237540803686921e+01  1.2218346432628406e+01  1.2163114300714424e+01  1.2077915261559010e+01  1.1952604840173366e+01  1.1766042053196983e+01  1.1591155771296600e+01  1.1366938825111006e+01  1.1077097114249991e+01  1.0786225763692155e+01  1.0454716489282529e+01  1.0108468911590970e+01  9.7627561784209043e+00  9.3982853818234826e+00  9.0340113539004570e+00  8.6295806225070599e+00  8.2444583369155389e+00  7.7952369598373377e+00  7.3343471703441931e+00  6.9039903708647596e+00  6.4415505561707569e+00  5.9993665513301515e+00  5.5978872937201398e+00  5.2175326810392164e+00  4.9170162481512554e+00  4.6724859622447656e+00  4.4891381393496816e+00  4.3731440564811628e+00  4.3143645911393298e+00  4.3114570474153568e+00  4.3794633689987599e+00  4.5082561108073822e+00  4.7047782395279114e+00  4.9944583339056488e+00  5.3356182099829592e+00  5.7003157514588132e+00  6.1178655533538020e+00  6.5363389043761542e+00  6.9491348232146333e+00  7.3034073947373113e+00  7.6806659880849555e+00  7.9516958705371437e+00  8.1859786000193235e+00  8.3835839988417753e+00  8.48525