<?xml version="1.0"?>
<VTKFile type="UnstructuredGrid"  version="0.1"  >
<UnstructuredGrid>
<Piece  NumberOfPoints="2401" NumberOfCells="4608">
<Points>
<DataArray  type="Float64"  NumberOfComponents="3"  format="ascii">0 0 0  0.001070538380698371 0 0  0.004277569313095364 0 0  0.009607359798386061 0 0  0.01703708685546806 0 0  0.02653493525245065 0 0  0.03806023374436157 0 0  0.05156362923366253 0 0  0.06698729810778931 0 0  0.08426519384873815 0 0  0.1033233298543955 0 0  0.1240800962605269 0 0  0.1464466094067445 0 0  0.1703270924499866 0 0  0.1956192854956637 0 0  0.2222148834902257 0 0  0.2500000000000299 0 0  0.2788556548905322 0 0  0.308658283817491 0 0  0.339280267348458 0 0  0.3705904774487813 0 0  0.4024548389919803 0 0  0.4347369038900211 0 0  0.467298435384978 0 0  0.5000000000000517 0 0  0.5327015646151253 0 0  0.5652630961100813 0 0  0.5975451610081212 0 0  0.6294095225513188 0 0  0.6607197326516399 0 0  0.6913417161826045 0 0  0.7211443451095605 0 0  0.7500000000000597 0 0  0.7777851165098603 0 0  0.8043807145044185 0 0  0.829672907550091 0 0  0.8535533905933287 0 0  0.8759199037395413 0 0  0.8966766701456674 0 0  0.9157348061513193 0 0  0.9330127018922625 0 0  0.9484363707663832 0 0  0.961939766255678 0 0  0.9734650647475827 0 0  0.9829629131445586 0 0  0.9903926402016341 0 0  0.9957224306869181 0 0  0.9989294616193084 0 0  1 0 0  0 0.02083333333333333 0  0.001070538380698371 0.02083333333333333 0  0.004277569313095364 0.02083333333333333 0  0.009607359798386061 0.02083333333333333 0  0.01703708685546806 0.02083333333333333 0  0.02653493525245065 0.02083333333333333 0  0.03806023374436157 0.02083333333333333 0  0.05156362923366253 0.02083333333333333 0  0.06698729810778931 0.02083333333333333 0  0.08426519384873815 0.02083333333333333 0  0.1033233298543955 0.02083333333333333 0  0.1240800962605269 0.02083333333333333 0  0.1464466094067445 0.02083333333333333 0  0.1703270924499866 0.02083333333333333 0  0.1956192854956637 0.02083333333333333 0  0.2222148834902257 0.02083333333333333 0  0.2500000000000299 0.02083333333333333 0  0.2788556548905322 0.02083333333333333 0  0.308658283817491 0.02083333333333333 0  0.339280267348458 0.02083333333333333 0  0.3705904774487813 0.02083333333333333 0  0.4024548389919803 0.02083333333333333 0  0.4347369038900211 0.02083333333333333 0  0.467298435384978 0.02083333333333333 0  0.5000000000000517 0.02083333333333333 0  0.5327015646151253 0.02083333333333333 0  0.5652630961100813 0.02083333333333333 0  0.5975451610081212 0.02083333333333333 0  0.6294095225513188 0.02083333333333333 0  0.6607197326516399 0.02083333333333333 0  0.6913417161826045 0.02083333333333333 0  0.7211443451095605 0.02083333333333333 0  0.7500000000000597 0.02083333333333333 0  0.7777851165098603 0.02083333333333333 0  0.8043807145044185 0.02083333333333333 0  0.829672907550091 0.02083333333333333 0  0.8535533905933287 0.02083333333333333 0  0.8759199037395413 0.02083333333333333 0  0.8966766701456674 0.02083333333333333 0  0.9157348061513193 0.02083333333333333 0  0.9330127018922625 0.02083333333333333 0  0.9484363707663832 0.02083333333333333 0  0.961939766255678 0.02083333333333333 0  0.9734650647475827 0.02083333333333333 0  0.9829629131445586 0.02083333333333333 0  0.9903926402016341 0.02083333333333333 0  0.9957224306869181 0.02083333333333333 0  0.9989294616193084 0.02083333333333333 0  1 0.02083333333333333 0  0 0.04166666666666666 0  0.001070538380698371 0.04166666666666666 0  0.004277569313095364 0.04166666666666666 0  0.009607359798386061 0.04166666666666666 0  0.01703708685546806 0.04166666666666666 0  0.02653493525245065 0.04166666666666666 0  0.03806023374436157 0.04166666666666666 0  0.05156362923366253 0.04166666666666666 0  0.06698729810778931 0.04166666666666666 0  0.08426519384873815 0.04166666666666666 0  0.1033233298543955 0.04166666666666666 0  0.1240800962605269 0.04166666666666666 0  0.1464466094067445 0.04166666666666666 0  0.1703270924499866 0.04166666666666666 0  0.1956192854956637 0.04166666666666666 0  0.2222148834902257 0.04166666666666666 0  0.2500000000000299 0.04166666666666666 0  0.2788556548905322 0.04166666666666666 0  0.308658283817491 0.04166666666666666 0  0.339280267348458 0.04166666666666666 0  0.3705904774487813 0.04166666666666666 0  0.4024548389919803 0.04166666666666666 0  0.4347369038900211 0.04166666666666666 0  0.467298435384978 0.04166666666666666 0  0.5000000000000517 0.04166666666666666 0  0.5327015646151253 0.04166666666666666 0  0.5652630961100813 0.04166666666666666 0  0.5975451610081212 0.04166666666666666 0  0.6294095225513188 0.04166666666666666 0  0.6607197326516399 0.04166666666666666 0  0.6913417161826045 0.04166666666666666 0  0.7211443451095605 0.04166666666666666 0  0.7500000000000597 0.04166666666666666 0  0.7777851165098603 0.04166666666666666 0  0.8043807145044185 0.04166666666666666 0  0.829672907550091 0.04166666666666666 0  0.8535533905933287 0.04166666666666666 0  0.8759199037395413 0.04166666666666666 0  0.8966766701456674 0.04166666666666666 0  0.9157348061513193 0.04166666666666666 0  0.9330127018922625 0.04166666666666666 0  0.9484363707663832 0.04166666666666666 0  0.961939766255678 0.04166666666666666 0  0.9734650647475827 0.04166666666666666 0  0.9829629131445586 0.04166666666666666 0  0.9903926402016341 0.04166666666666666 0  0.9957224306869181 0.04166666666666666 0  0.9989294616193084 0.04166666666666666 0  1 0.04166666666666666 0  0 0.0625 0  0.001070538380698371 0.0625 0  0.004277569313095364 0.0625 0  0.009607359798386061 0.0625 0  0.01703708685546806 0.0625 0  0.02653493525245065 0.0625 0  0.03806023374436157 0.0625 0  0.05156362923366253 0.0625 0  0.06698729810778931 0.0625 0  0.08426519384873815 0.0625 0  0.1033233298543955 0.0625 0  0.1240800962605269 0.0625 0  0.1464466094067445 0.0625 0  0.1703270924499866 0.0625 0  0.1956192854956637 0.0625 0  0.2222148834902257 0.0625 0  0.2500000000000299 0.0625 0  0.2788556548905322 0.0625 0  0.308658283817491 0.0625 0  0.339280267348458 0.0625 0  0.3705904774487813 0.0625 0  0.4024548389919803 0.0625 0  0.4347369038900211 0.0625 0  0.467298435384978 0.0625 0  0.5000000000000517 0.0625 0  0.5327015646151253 0.0625 0  0.5652630961100813 0.0625 0  0.5975451610081212 0.0625 0  0.6294095225513188 0.0625 0  0.6607197326516399 0.0625 0  0.6913417161826045 0.0625 0  0.7211443451095605 0.0625 0  0.7500000000000597 0.0625 0  0.7777851165098603 0.0625 0  0.8043807145044185 0.0625 0  0.829672907550091 0.0625 0  0.8535533905933287 0.0625 0  0.8759199037395413 0.0625 0  0.8966766701456674 0.0625 0  0.9157348061513193 0.0625 0  0.9330127018922625 0.0625 0  0.9484363707663832 0.0625 0  0.961939766255678 0.0625 0  0.9734650647475827 0.0625 0  0.9829629131445586 0.0625 0  0.9903926402016341 0.0625 0  0.9957224306869181 0.0625 0  0.9989294616193084 0.0625 0  1 0.0625 0  0 0.08333333333333333 0  0.001070538380698371 0.08333333333333333 0  0.004277569313095364 0.08333333333333333 0  0.009607359798386061 0.08333333333333333 0  0.01703708685546806 0.08333333333333333 0  0.02653493525245065 0.08333333333333333 0  0.03806023374436157 0.08333333333333333 0  0.05156362923366253 0.08333333333333333 0  0.06698729810778931 0.08333333333333333 0  0.08426519384873815 0.08333333333333333 0  0.1033233298543955 0.08333333333333333 0  0.1240800962605269 0.08333333333333333 0  0.1464466094067445 0.08333333333333333 0  0.1703270924499866 0.08333333333333333 0  0.1956192854956637 0.08333333333333333 0  0.2222148834902257 0.08333333333333333 0  0.2500000000000299 0.08333333333333333 0  0.2788556548905322 0.08333333333333333 0  0.308658283817491 0.08333333333333333 0  0.339280267348458 0.08333333333333333 0  0.3705904774487813 0.08333333333333333 0  0.4024548389919803 0.08333333333333333 0  0.4347369038900211 0.08333333333333333 0  0.467298435384978 0.08333333333333333 0  0.5000000000000517 0.08333333333333333 0  0.5327015646151253 0.08333333333333333 0  0.5652630961100813 0.08333333333333333 0  0.5975451610081212 0.08333333333333333 0  0.6294095225513188 0.08333333333333333 0  0.6607197326516399 0.08333333333333333 0  0.6913417161826045 0.08333333333333333 0  0.7211443451095605 0.08333333333333333 0  0.7500000000000597 0.08333333333333333 0  0.7777851165098603 0.08333333333333333 0  0.8043807145044185 0.08333333333333333 0  0.829672907550091 0.08333333333333333 0  0.8535533905933287 0.08333333333333333 0  0.8759199037395413 0.08333333333333333 0  0.8966766701456674 0.08333333333333333 0  0.9157348061513193 0.08333333333333333 0  0.9330127018922625 0.08333333333333333 0  0.9484363707663832 0.08333333333333333 0  0.961939766255678 0.08333333333333333 0  0.9734650647475827 0.08333333333333333 0  0.9829629131445586 0.08333333333333333 0  0.9903926402016341 0.08333333333333333 0  0.9957224306869181 0.08333333333333333 0  0.9989294616193084 0.08333333333333333 0  1 0.08333333333333333 0  0 0.1041666666666667 0  0.001070538380698371 0.1041666666666667 0  0.004277569313095364 0.1041666666666667 0  0.009607359798386061 0.1041666666666667 0  0.01703708685546806 0.1041666666666667 0  0.02653493525245065 0.1041666666666667 0  0.03806023374436157 0.1041666666666667 0  0.05156362923366253 0.1041666666666667 0  0.06698729810778931 0.1041666666666667 0  0.08426519384873815 0.1041666666666667 0  0.1033233298543955 0.1041666666666667 0  0.1240800962605269 0.1041666666666667 0  0.1464466094067445 0.1041666666666667 0  0.1703270924499866 0.1041666666666667 0  0.1956192854956637 0.1041666666666667 0  0.2222148834902257 0.1041666666666667 0  0.2500000000000299 0.1041666666666667 0  0.2788556548905322 0.1041666666666667 0  0.308658283817491 0.1041666666666667 0  0.339280267348458 0.1041666666666667 0  0.3705904774487813 0.1041666666666667 0  0.4024548389919803 0.1041666666666667 0  0.4347369038900211 0.1041666666666667 0  0.467298435384978 0.1041666666666667 0  0.5000000000000517 0.1041666666666667 0  0.5327015646151253 0.1041666666666667 0  0.5652630961100813 0.1041666666666667 0  0.5975451610081212 0.1041666666666667 0  0.62
[...]
<PointData  Scalars="f_15444559"> 
<DataArray  type="Float64"  Name="f_15444559"  format="ascii">3.0803192145588572e+00  3.0805501738359458e+00  3.0895070930011790e+00  3.1030979749439562e+00  3.1363122565398394e+00  3.1948609493749700e+00  3.2784386939768249e+00  3.3909083867653029e+00  3.5470620059898796e+00  3.7381286759749770e+00  3.9511521503558531e+00  4.1989946075620450e+00  4.4594262701743741e+00  4.7986872759812993e+00  5.1393536915085951e+00  5.5205797147264315e+00  5.8296711899544720e+00  6.2305023708251017e+00  6.6286511713797394e+00  6.9860799741499875e+00  7.3812780802605262e+00  7.8539619297591807e+00  8.3132348712076460e+00  8.7909694751422389e+00  9.2252845701193387e+00  9.6445722483318281e+00  1.0020244727301913e+01  1.0403897689815455e+01  1.0727024813006873e+01  1.0967731984517956e+01  1.1114539500495470e+01  1.1146142052440114e+01  1.1087317308721046e+01  1.0994828094166570e+01  1.0870762230326584e+01  1.0727570678578338e+01  1.0574582577379804e+01  1.0421609141675630e+01  1.0286909780509260e+01  1.0148174277427058e+01  9.9897007304529737e+00  9.8685446309770430e+00  9.7590454804516664e+00  9.6379240177840746e+00  9.5389508404475336e+00  9.4694371029810824e+00  9.4299381711873398e+00  9.4113337643879298e+00  9.4140167257682847e+00  3.0524794377929063e+00  3.0532747646208489e+00  3.0572369015608274e+00  3.0762582191418479e+00  3.1061154892897367e+00  3.1594307911757422e+00  3.2489428147502872e+00  3.3514072165071114e+00  3.5068542440240624e+00  3.6798688914402629e+00  3.9002082503454254e+00  4.1250049496205730e+00  4.3984611158711866e+00  4.7045015719361505e+00  5.0397238702138862e+00  5.4217794759292923e+00  5.7560539284907710e+00  6.1098219600233543e+00  6.4822764038856873e+00  6.9019858015003699e+00  7.2576436111637959e+00  7.6846925447932062e+00  8.1861909482607285e+00  8.6644226808350933e+00  9.1276841430945748e+00  9.5409856142676031e+00  9.9302230805658613e+00  1.0267476828722902e+01  1.0596375868637436e+01  1.0868960244619714e+01  1.1049842636128011e+01  1.1117612503010774e+01  1.1086996675756172e+01  1.1016269257691141e+01  1.0921086265094333e+01  1.0802526803329211e+01  1.0670949780583717e+01  1.0544784676163182e+01  1.0408315933742438e+01  1.0264332130262154e+01  1.0135372301778872e+01  9.9908644223450462e+00  9.8601687468952317e+00  9.7578013753179391e+00  9.6725675584268078e+00  9.5975070249859851e+00  9.5555564990880857e+00  9.5404667890697485e+00  9.5381998222968072e+00  3.0067731962890538e+00  3.0077227829108493e+00  3.0113446019811065e+00  3.0246776707192193e+00  3.0547393584959153e+00  3.1082562821772495e+00  3.1814019947843857e+00  3.2953562232091174e+00  3.4115138345412888e+00  3.5843642315802269e+00  3.7866003694458890e+00  3.9991941821394139e+00  4.2662428635386194e+00  4.5505548851012927e+00  4.8961539604673225e+00  5.1998031520838435e+00  5.5809728944916932e+00  5.9489885001854184e+00  6.2819088682179700e+00  6.6726368073584998e+00  7.0937665380377473e+00  7.4759194531515698e+00  7.8848323078204681e+00  8.4458677018915971e+00  8.8665679181049679e+00  9.3101668187937676e+00  9.7012177308966159e+00  1.0059009144871041e+01  1.0363758373112695e+01  1.0666452313310954e+01  1.0881867975309294e+01  1.1034308756995568e+01  1.1088463726125500e+01  1.1076954223406243e+01  1.1030333235962248e+01  1.0968024780285308e+01  1.0877087151421579e+01  1.0772465555162221e+01  1.0660626371321655e+01  1.0520829395212564e+01  1.0367727300482169e+01  1.0234924755055442e+01  1.0107749986423489e+01  9.9755083718531292e+00  9.8749812876970040e+00  9.8207007099021748e+00  9.7717006072663413e+00  9.7601150839248039e+00  9.7604974854471003e+00  2.9667655949334057e+00  2.9670993469359215e+00  2.9714209616039109e+00  2.9829320561093517e+00  3.0103180270849199e+00  3.0543875167944425e+00  3.1269281735387260e+00  3.2211617904758705e+00  3.3333761070522470e+00  3.4931522022831407e+00  3.6680882200894067e+00  3.8696178780757413e+00  4.1051986596461045e+00  4.3686545801307606e+00  4.7171122915769930e+00  5.0146461750306672e+00  5.3803491848594369e+00  5.7072130043111606e+00  6.0813256667363138e+00  6.4432238588383637e+00  6.8241693784939867e+00  7.2957315486364029e+00  7.6715849246815084e+00  8.1225307114923329e+00  8.6192838290542486e+00  9.0435864689415890e+00  9.4448406294604226e+00  9.8026691601412921e+00  1.0135328471075846e+01  1.0445796066087951e+01  1.0707900037918947e+01  1.0930131708354320e+01  1.1078717809135732e+01  1.1149014487307708e+01  1.1169117957494231e+01  1.1158346148298419e+01  1.1092492897880982e+01  1.0992435600348688e+01  1.0865991563563574e+01  1.0742975154287793e+01  1.0583798763719180e+01  1.0426392796213470e+01  1.0292218814833355e+01  1.0171011952663289e+01  1.0079414090722439e+01  1.0010182723445633e+01  9.9762829116290312e+00  9.9610756391979898e+00  9.9599710738214728e+00  2.9359243931880910e+00  2.9374212596540707e+00  2.9416451234501837e+00  2.9526592767751794e+00  2.9773741372981046e+00  3.0128270801613191e+00  3.0764699536235454e+00  3.1521070461372505e+00  3.2563656661816425e+00  3.3891160308082484e+00  3.5726844127012058e+00  3.7558668885076187e+00  3.9818563660306321e+00  4.2242750163866365e+00  4.4947787334928213e+00  4.8608663460041237e+00  5.1756224700740310e+00  5.5257957772651727e+00  5.8381387634982529e+00  6.2343115830564875e+00  6.6070977848262897e+00  6.9745188587534308e+00  7.4752488799522423e+00  7.8635904460837383e+00  8.3129341501810590e+00  8.7266504615884841e+00  9.1467157418994702e+00  9.5416510788485116e+00  9.9009746709586732e+00  1.0231035421716845e+01  1.0528481141193671e+01  1.0799843867607223e+01  1.1031628965914294e+01  1.1201061042318868e+01  1.1277616244578635e+01  1.1289154769867924e+01  1.1259508733834089e+01  1.1175264601619078e+01  1.1056396415831243e+01  1.0893687285524917e+01  1.0744668494938864e+01  1.0585328794708762e+01  1.0443056660501901e+01  1.0314119224571362e+01  1.0214502516141549e+01  1.0154669315285581e+01  1.0126665530308394e+01  1.0114786117312677e+01  1.0115205178179181e+01  2.9175958642799484e+00  2.9172079931583115e+00  2.9213244504639997e+00  2.9313918108179333e+00  2.9514954404750808e+00  2.9856436205129593e+00  3.0360760685821142e+00  3.1081217913745167e+00  3.1875158952183766e+00  3.3179012177206189e+00  3.4585859850058780e+00  3.6509125796462234e+00  3.8580696988595906e+00  4.0810785254516304e+00  4.3329096761229371e+00  4.6462881665069782e+00  4.9664452216321999e+00  5.3309106953913403e+00  5.6420912071980487e+00  5.9811125264132183e+00  6.4112746155500959e+00  6.7636375505759352e+00  7.1579987785170731e+00  7.6041944907710803e+00  8.0167033033680859e+00  8.4471076124446789e+00  8.8667077398742915e+00  9.2608906810563578e+00  9.6819992062468394e+00  1.0036803878820947e+01  1.0369586857014797e+01  1.0663053100744483e+01  1.0954540546688818e+01  1.1182131249765867e+01  1.1327581536549468e+01  1.1364214174907907e+01  1.1336563228838894e+01  1.1250040369368513e+01  1.1136239422868924e+01  1.0965375025774010e+01  1.0813261319484875e+01  1.0661776636942269e+01  1.0520067748583759e+01  1.0397858158302368e+01  1.0313381739338425e+01  1.0249652147156194e+01  1.0211996416238751e+01  1.0200352706060821e+01  1.0201321608039931e+01  2.9143616053567571e+00  2.9144522009874025e+00  2.9166186631372604e+00  2.9249212879762601e+00  2.9438364696213708e+00  2.9699542520941828e+00  3.0134594053908064e+00  3.0777509425427838e+00  3.1554057131667230e+00  3.2485290818127388e+00  3.4039189961513645e+00  3.5435975651823415e+00  3.7502372293786079e+00  3.9700444495769718e+00  4.1992932065425759e+00  4.4950210183562085e+00  4.8091788826202997e+00  5.0980885195682575e+00  5.4406764632100968e+00  5.7700056803024156e+00  6.1165327741039786e+00  6.5239991760628220e+00  6.8825782698299420e+00  7.2964926725816239e+00  7.7671437350955692e+00  8.1813205009020251e+00  8.5693467214548225e+00  8.9590992068050408e+00  9.3928439481887267e+00  9.8018281503435603e+00  1.0191023883736719e+01  1.0523189932706719e+01  1.0829791583259281e+01  1.1093596262102016e+01  1.1275428875710652e+01  1.1340246776907987e+01  1.1318386188607615e+01  1.1222850412270219e+01  1.1112682379585797e+01  1.0958602455205094e+01  1.0802797473652427e+01  1.0677481185588109e+01  1.0530210034366807e+01  1.0409042306453337e+01  1.0333072142573394e+01  1.0282104785169897e+01  1.0251051461778507e+01  1.0237029559529111e+01  1.0235096709358631e+01  2.9288609573499294e+00  2.9287763160616365e+00  2.9317799939264284e+00  2.9420690484050152e+00  2.9558923352451143e+00  2.9832341567693139e+00  3.0224965162999138e+00  3.0714464485911250e+00  3.1402850174052750e+00  3.2224853436743230e+00  3.3547869796249361e+00  3.4805347493183918e+00  3.6455795459475304e+00  3.8526009247598036e+00  4.0888125605923422e+00  4.3445031871571729e+00  4.6502515237985627e+00  4.9385009206721264e+00  5.2324137925321308e+00  5.5356174433466894e+00  5.8654133415926948e+00  6.2396755163376882e+00  6.6355627770049770e+00  7.0005887017107673e+00  7.4467784041720311e+00  7.9021389679893135e+00  8.3201166112898850e+00  8.7009205597309709e+00  9.1249888830804053e+00  9.5399383971377905e+00  9.9611179107316570e+00  1.0336097009706146e+01  1.0694452745673081e+01  1.0949424487555582e+01  1.1145003348419516e+01  1.1233456028232723e+01  1.1212276074314733e+01  1.1144409589440745e+01  1.1029879588951109e+01  1.0876440282070522e+01  1.0726741533145352e+01  1.0617117297742782e+01  1.0484939383123804e+01  1.0378035031411985e+01  1.0309985792528867e+01  1.0258287788601926e+01  1.0225460775541034e+01  1.0220608030803879e+01  1.0221919678549591e+01  2.9648704919102928e+00  2.9651433535294833e+00  2.9681337912266397e+00  2.9774288584163626e+00  2.9922721634058482e+00  3.0151950908155607e+00  3.0514184666974860e+00  3.0943215483664273e+00  3.1464143196782133e+00  3.2334275700174486e+00  3.3180682106205026e+00  3.4430947433619825e+00  3.5917875089431566e+00  3.7584654641653317e+00  3.9624745294298527e+00  4.2188771468799660e+00  4.4662164665264790e+00  4.7515815201858498e+00  5.0162992025033972e+00  5.3112416802406610e+00  5.6357300493744580e+00  5.9789031615680335e+00  6.3947398794551127e+00  6.7597187490476953e+00  7.1819635715032337e+00  7.5919694131206112e+00  8.0325223674097543e+00  8.4569473678438509e+00  8.8778847614056584e+00  9.3027052033940514e+00  9.7465025263320602e+00  1.0119312000886836e+01  1.0476368174584954e+01  1.0780222436683644e+01  1.0981234947980546e+01  1.1073027722996812e+01  1.1051903339803136e+01  1.0989599709119316e+01  1.0887088625130529e+01  1.0747246504593640e+01  1.0617568506437244e+01  1.0511343531893862e+01  1.0391339055069514e+01  1.0303936358150008e+01  1.0238966909180510e+01  1.0190968274313589e+01  1.0163121939101172e+01  1.0150852144632525e+01  1.0151140676516318e+01  3.0284008606731843e+00  3.0286065374594702e+00  3.0305357137226987e+00  3.0360166635575609e+00  3.0472152669000385e+00  3.0680093912644497e+00  3.1032740540428003e+00  3.1399685175510288e+00  3.1826482358929860e+00  3.2487275713668171e+00  3.3290486883434780e+00  3.4245917624244404e+00  3.5583176935878860e+00  3.7030192988741533e+00  3.8760894023227102e+00  4.0742793347524691e+00  4.3181922494454383e+00  4.5585721211936212e+00  4.8294843717549947e+00  5.1025958097795865e+00  5.4051542447642449e+00  5.7488505998021546e+00  6.1055127565979799e+00  6.4870211724472089e+00  6.9164671990129989e+00  7.3478014333553343e+00  7.7536505665777433e+00  8.2005936497913492e+00  8.6266918176459733e+00  9.0717587825207318e+00  9.4991101483639557e+00  9.9084533511316355e+00  1.0270141182298318e+01  1.0563704561731560e+01  1.0766826368145443e+01  1.0880339330747498e+01  1.0873787410308712e+01  1.0807684207438028e+01  1.0702980507876958e+01  1.0578306270048166e+01  1.0469214602014551e+01  1.0367059089667610e+01  1.0263217865212244e+01  1.0187802209675848e+01  1.0127967104202792e+01  1.0080584087351903e+01  1.0058294002267765e+01  1.0050391833677828e+01  1.0049279048775059e+01  3.1139510212317525e+00  3.1140649355138574e+00  3.1162471899858306e+00  3.1204913447640097e+00  3.1304769617099830e+00  3.1531792961589566e+00  3.1752376944907441e+00  3.2011024985332908e+00  3.2393310857890500e+00  3.2918479703702310e+00  3.3564779339939625e+00  3.4476057699137854e+00  3.5456984748470615e+00  3.6754573651543203e+00  3.8154769835054001e+00  3.9948687994189815e+00  4.1824033089801533e+00  4.4044022789411743e+00  4.6540137244400297e+00  4.9374242058645255e+00  5.2216036412817699e+00  5.5074357017847104e+00  5.8725009964416213e+00  6.2600563910801084e+00  6.6594388914772908e+00  7.0725898971922589e+00  7.5078884695521984e+00  7.9448068126393814e+00  8.4053933833879029e+00  8.8240370344063432e+00  9.2693989492504709e+00  9.6738945668458349e+00  1.0032442256981209e+01  1.0327918763606661e+01  1.0532193378912737e+01  1.0641316814419293e+01  1.0680390685959638e+01  1.0626185308312731e+01  1.0519245532023474e+01  1.0399633887793403e+01  1.0299972273916891e+01  1.0202228616970650e+01  1.0104634071917992e+01  1.0037052323724280e+01  9.9788012287380639e+00  9.9358627554042993e+00  9.9196099439015821e+00  9.9080347369477195e+00  9.9071996422524133e+00  3.2225840625174378e+00  3.2225845202326777e+00  3.2241796998401755e+00  3.2286692243984230e+00  3.2415114230563016e+00  3.2553511488765472e+00  3.2689645096233133e+00  3.2961151819801344e+00  3.3360569308328221e+00  3.3742438474485459e+00  3.4291565347584423e+00  3.4957299974228220e+00  3.5794207391315380e+00  3.6730896150234242e+00  3.7887027727094491e+00  3.9345229590653532e+00  4.1033919259561245e+00  4.2785501880915158e+00  4.4963807019172322e+00  4.7317708694230216e+00  5.0121140910932747e+00  5.3181744212976705e+00  5.6294203875972668e+00  6.0159647533348313e+00  6.4269953208951183e+00  6.8547487979763329e+00  7.2468909803266470e+00  7.6996969217266544e+00  8.1490790088751872e+00  8.5466404674831988e+00  9.0123156941269453e+00  9.3949655186086485e+00  9.7559082613789307e+00  1.0060264890601010e+01  1.0288561887563715e+01  1.0379639460321002e+01  1.0409731301510600e+01  1.0382689172359523e+01  1.0305517230364785e+01  1.0208014184857712e+01  1.0102407273552911e+01  1.0007355618619005e+01  9.9149169944463917e+00  9.8506140971125511e+00  9.7979432284854635e+00  9.7580610414666893e+00  9.7423808357215105e+00  9.7344401123356032e+00  9.7344842784654411e+00  3.3511811603348738e+00  3.3513797081071406e+00  3.3534995491747863e+00  3.3585808052507069e+00  3.3673570149467098e+00  3.3823469976333258e+00  3.4038825443508278e+00  3.4316949788260334e+00  3.4594354732218942e+00  3.4900081776160543e+00  3.5279408095872937e+00  3.5734383675669230e+00  3.6323170958350373e+00  3.7037030134195765e+00  3.7942620910351765e+00  3.9134981034034397e+00  4.0476347908064820e+00  4.1917560731768999e+00  4.3768071118956353e+00  4.6102484187134989e+00  4.8481271552322598e+00  5.1223573293354390e+00  5.4186301158184964e+00  5.7751518265367752e+00  6.1729832261519011e+00  6.5839467376176728e+00  7.0107233307342511e+00  7.4509279392788557e+00  7.8979139662395683e+00  8.2946993397767379e+00  8.7251409861512990e+00  9.1421398289184204e+00  9.4934607636512958e+00  9.7541402197819771e+00  9.9883038881833279e+00  1.0108389400405285e+01  1.0122060248133080e+01  1.0087452602472629e+01  1.0028583423078061e+01  9.9604613673889979e+00  9.8861806056257180e+00  9.7845538988118754e+00  9.6952398434399072e+00  9.6393981816902095e+00  9.5894209388237623e+00  9.5533799352066655e+00  9.5378085930777594e+00  9.5321630822025973e+00  9.5327931043618364e+00  3.5051738295368056e+00  3.5051805174649449e+00  3.5061371217120025e+00  3.5104057805506645e+00  3.5239462079586676e+00  3.5374511953212342e+00  3.5518072769313509e+00  3.5737957601828718e+00  3.5969080242236231e+00  3.6171314028776202e+00  3.6518551797811192e+00  3.6908617687494174e+00  3.7326722995889456e+00  3.7741620098510023e+00  3.8435052979874476e+00  3.9311934233817616e+00  4.0220861049220771e+00  4.1374515103553744e+00  4.2795454750362900e+00  4.4674714735888337e+00  4.6991798333613586e+00  4.9358759557815368e+00  5.2273296411688559e+00  5.5606117099609254e+00  5.9416636167596666e+00  6.3452887436484273e+00  6.7355520758019605e+00  7.2026822660400516e+00  7.6288825887668992e+00  8.0588636253893817e+00  8.4640267696458285e+00  8.8576840542343316e+00  9.2189584217713882e+00  9.5101552609870232e+00  9.6967433461472332e+00  9.8377022787253861e+00  9.8558901668951613e+00  9.8369563505051225e+00  9.7666472377805231e+00  9.6796532024950910e+00  9.5713870465461053e+00  9.5018478835802060e+00  9.4424730073750016e+00  9.3875930985003500e+00  9.3398569997378473e+00  9.3140680174486832e+00  9.2989311145672602e+00  9.2922030469799015e+00  9.2921311975184313e+00  3.6844677024130998e+00  3.6847312034515540e+00  3.6870762186968951e+00  3.6937630871631262e+00  3.7010497929949944e+00  3.7117788328893022e+00  3.7329889789409005e+00  3.7553068259320357e+00  3.7656445054884249e+00  3.7841389727198158e+00  3.8100646854333102e+00  3.8350155693590176e+00  3.8668048613596082e+00  3.8993823039933022e+00  3.9361290229405719e+00  3.9847373118945679e+00  4.0417885991026816e+00  4.1169127875418257e+00  4.2228378900994628e+00  4.3724859923550623e+00  4.5580753077251757e+00  4.7810800114280418e+00  5.0301325193477773e+00  5.3517896035572248e+00  5.7264867416910556e+00  6.0941795227295135e+00  6.4975387707977186e+00  6.9401734522255980e+00  7.3858890717853649e+00  7.7676042159019847e+00  8.2159104859072194e+00  8.5792987507443570e+00  8.9074792233727305e+00  9.2106380809083177e+00  9.4301258739022593e+00  9.5297170711463366e+00  9.5755898245451263e+00  9.5513769504545145e+00  9.5018539554608541e+00  9.4285448399300513e+00  9.3460457662168039e+00  9.2769348392358193e+00  9.2072977251404229e+00  9.1521378419274040e+00  9.0998059100605726e+00  9.0738729451977367e+00  9.0588564527093673e+00  9.0527775187245130e+00  9.0522758322167824e+00  3.8773449399603162e+00  3.8773368176030631e+00  3.8796752995182691e+00  3.8866044145229326e+00  3.8967106760402168e+00  3.9116167822072283e+00  3.9316493693557004e+00  3.9440891247593912e+00  3.9614591932424021e+00  3.9874875761816857e+00  4.0030186333753122e+00  4.0166209954055709e+00  4.0231212914932950e+00  4.0402748876875592e+00  4.0542084280900896e+00  4.0712757117852352e+00  4.0978630989646145e+00  4.1363810321507790e+00  4.1984319339612597e+00  4.2964174715204342e+00  4.4418085446885209e+00  4.6455551269538073e+00  4.8720259767821545e+00  5.1570567541562458e+00  5.5125742927206023e+00  5.8789971659559059e+00  6.2814880443080687e+00  6.7007804353211275e+00  7.1058889792567212e+00  7.4972389013254981e+00  7.9213245232718368e+00  8.3216015707782791e+00  8.6139392190600699e+00  8.8835062131361866e+00  9.0970714975697966e+00  9.2061772724151929e+00  9.2803162543641591e+00  9.2576518146207754e+00  9.2209405714011510e+00  9.1531619510700946e+00  9.0932865269333867e+00  9.0258699695640363e+00  8.9533325833891748e+00  8.9044186848118088e+00  8.8671741251689085e+00  8.8448211669469501e+00  8.8243580064794411e+00  8.8172705432324374e+00  8.8171131724858736e+00  4.0927338874562684e+00  4.0927257802511727e+00  4.0943272236703230e+00  4.0979857664498196e+00  4.1073279307171955e+00  4.1188145069214803e+00  4.1322122577526512e+00  4.1525778154689537e+00  4.1604214728171707e+00  4.1799302884373715e+00  4.2070571481483707e+00  4.2298209022047635e+00  4.2358830557062550e+00  4.2265779030262793e+00  4.2102278042358492e+00  4.1976182946962428e+00  4.1926447002210088e+00  4.1965337562294485e+00  4.2137740411105229e+00  4.2645600849820520e+00  4.3559817357227413e+00  4.5061250935672943e+00  4.7170711054368839e+00  4.9744654009171612e+00  5.2955604156430161e+00  5.6667433697102592e+00  6.0313543720018323e+00  6.4627653072216829e+00  6.8770021680905771e+00  7.2383570483067334e+00  7.6282525125384693e+00  8.0019601985572688e+00  8.2881269396833819e+00  8.5642019562226501e+00  8.7699458007308273e+00  8.8808862888329543e+00  8.9426123796053680e+00  8.9796972294508421e+00  8.9214484179150215e+00  8.8713931742283165e+00  8.8096356469725627e+00  8.7405170545824671e+00  8.6789155076298403e+00  8.6280763682451518e+00  8.5811204672654888e+00  8.55836