<?xml version="1.0"?>
<VTKFile type="UnstructuredGrid"  version="0.1"  >
<UnstructuredGrid>
<Piece  NumberOfPoints="3832" NumberOfCells="6444">
<Points>
<DataArray  type="Float64"  NumberOfComponents="3"  format="ascii">1.25 0 0  1.249623523370255 0.03067653565364036 0  1.248494320256466 0.06133459290927252 0  1.246613070848363 0.09195570449958429 0  1.243980908340246 0.1225214254119508 0  1.240599418248387 0.1530133439990203 0  1.236470637455976 0.1834130930692022 0  1.231597052986177 0.2137023609503765 0  1.225981600504038 0.2438629025201603 0  1.219627662548161 0.2738765501960873 0  1.21253906649318 0.3037252248790798 0  1.2047200822443 0.333390946843623 0  1.196175419665261 0.3628558465680779 0  1.186910225741296 0.3921021754986144 0  1.176930081478776 0.4211123167402751 0  1.166240998543424 0.4498687956687352 0  1.154849415639108 0.4783542904563622 0  1.142762194629413 0.5065516425062373 0  1.129986616404304 0.5344438667878526 0  1.116530376494394 0.5620141620682582 0  1.102401580435444 0.5892459210324971 0  1.087608738885889 0.61612274028723 0  1.07216076250034 0.642628430241527 0  1.056066956562134 0.6687470248588714 0  1.039337015378182 0.6944627912745027 0  1.02198101643948 0.7197602392723067 0  1.004009414350806 0.7446241306155417 0  0.9854330345332579 0.7690394882257835 0  0.9662630667034212 0.7929916052045569 0  0.9465110581331058 0.8164660536922209 0  0.9261889066936989 0.8394486935587729 0  0.9053088536893338 0.8619256809213336 0  0.8838834764831844 0.8838834764831843 0  0.8619256809213337 0.9053088536893337 0  0.8394486935587729 0.9261889066936989 0  0.8164660536922209 0.9465110581331055 0  0.7929916052045569 0.9662630667034212 0  0.7690394882257835 0.9854330345332578 0  0.7446241306155419 1.004009414350806 0  0.7197602392723067 1.02198101643948 0  0.6944627912745028 1.039337015378182 0  0.6687470248588716 1.056066956562134 0  0.642628430241527 1.07216076250034 0  0.6161227402872301 1.087608738885889 0  0.5892459210324973 1.102401580435444 0  0.5620141620682583 1.116530376494394 0  0.5344438667878527 1.129986616404304 0  0.5065516425062373 1.142762194629413 0  0.4783542904563623 1.154849415639108 0  0.4498687956687353 1.166240998543424 0  0.4211123167402751 1.176930081478776 0  0.3921021754986145 1.186910225741296 0  0.3628558465680779 1.196175419665261 0  0.333390946843623 1.2047200822443 0  0.30372522487908 1.21253906649318 0  0.2738765501960872 1.219627662548161 0  0.2438629025201604 1.225981600504038 0  0.2137023609503767 1.231597052986177 0  0.1834130930692022 1.236470637455976 0  0.1530133439990203 1.240599418248387 0  0.122521425411951 1.243980908340246 0  0.09195570449958432 1.246613070848363 0  0.06133459290927266 1.248494320256466 0  0.03067653565364033 1.249623523370255 0  7.654042494670958e-17 1.25 0  -0.03067653565364018 1.249623523370255 0  -0.06133459290927251 1.248494320256466 0  -0.09195570449958416 1.246613070848363 0  -0.1225214254119508 1.243980908340246 0  -0.1530133439990202 1.240599418248387 0  -0.1834130930692021 1.236470637455976 0  -0.2137023609503766 1.231597052986177 0  -0.2438629025201602 1.225981600504038 0  -0.2738765501960871 1.219627662548161 0  -0.3037252248790798 1.21253906649318 0  -0.3333909468436229 1.2047200822443 0  -0.3628558465680777 1.196175419665261 0  -0.3921021754986143 1.186910225741296 0  -0.4211123167402749 1.176930081478776 0  -0.4498687956687352 1.166240998543424 0  -0.4783542904563621 1.154849415639108 0  -0.5065516425062372 1.142762194629413 0  -0.5344438667878524 1.129986616404304 0  -0.5620141620682584 1.116530376494394 0  -0.5892459210324972 1.102401580435444 0  -0.61612274028723 1.087608738885889 0  -0.642628430241527 1.07216076250034 0  -0.6687470248588713 1.056066956562134 0  -0.6944627912745025 1.039337015378182 0  -0.7197602392723067 1.02198101643948 0  -0.7446241306155417 1.004009414350806 0  -0.7690394882257834 0.9854330345332579 0  -0.7929916052045567 0.9662630667034213 0  -0.8164660536922207 0.9465110581331059 0  -0.8394486935587731 0.9261889066936988 0  -0.8619256809213337 0.9053088536893337 0  -0.8838834764831843 0.8838834764831844 0  -0.9053088536893334 0.8619256809213338 0  -0.9261889066936986 0.8394486935587732 0  -0.9465110581331058 0.8164660536922208 0  -0.9662630667034212 0.7929916052045569 0  -0.9854330345332578 0.7690394882257836 0  -1.004009414350806 0.7446241306155419 0  -1.02198101643948 0.7197602392723068 0  -1.039337015378182 0.6944627912745027 0  -1.056066956562134 0.6687470248588714 0  -1.07216076250034 0.6426284302415273 0  -1.087608738885889 0.6161227402872302 0  -1.102401580435444 0.5892459210324973 0  -1.116530376494394 0.5620141620682586 0  -1.129986616404304 0.5344438667878525 0  -1.142762194629413 0.5065516425062374 0  -1.154849415639108 0.4783542904563624 0  -1.166240998543424 0.4498687956687354 0  -1.176930081478776 0.4211123167402754 0  -1.186910225741296 0.3921021754986143 0  -1.196175419665261 0.362855846568078 0  -1.2047200822443 0.3333909468436231 0  -1.21253906649318 0.3037252248790801 0  -1.219627662548161 0.2738765501960876 0  -1.225981600504038 0.2438629025201608 0  -1.231597052986177 0.2137023609503765 0  -1.236470637455976 0.1834130930692023 0  -1.240599418248387 0.1530133439990204 0  -1.243980908340246 0.122521425411951 0  -1.246613070848363 0.09195570449958466 0  -1.248494320256466 0.06133459290927246 0  -1.249623523370255 0.03067653565364041 0  -1.25 1.530808498934192e-16 0  -1.249623523370255 -0.0306765356536401 0  -1.248494320256466 -0.06133459290927215 0  -1.246613070848363 -0.09195570449958437 0  -1.243980908340246 -0.1225214254119507 0  -1.240599418248387 -0.1530133439990201 0  -1.236470637455976 -0.183413093069202 0  -1.231597052986177 -0.2137023609503762 0  -1.225981600504038 -0.2438629025201605 0  -1.219627662548161 -0.2738765501960873 0  -1.21253906649318 -0.3037252248790798 0  -1.2047200822443 -0.3333909468436228 0  -1.196175419665261 -0.3628558465680776 0  -1.186910225741296 -0.392102175498614 0  -1.176930081478776 -0.4211123167402752 0  -1.166240998543424 -0.4498687956687352 0  -1.154849415639108 -0.4783542904563621 0  -1.142762194629413 -0.5065516425062371 0  -1.129986616404304 -0.5344438667878523 0  -1.116530376494394 -0.5620141620682583 0  -1.102401580435444 -0.5892459210324971 0  -1.087608738885889 -0.6161227402872299 0  -1.07216076250034 -0.6426284302415269 0  -1.056066956562134 -0.6687470248588712 0  -1.039337015378182 -0.6944627912745025 0  -1.02198101643948 -0.7197602392723067 0  -1.004009414350806 -0.7446241306155416 0  -0.9854330345332579 -0.7690394882257834 0  -0.9662630667034213 -0.7929916052045566 0  -0.946511058133106 -0.8164660536922207 0  -0.9261889066936989 -0.8394486935587731 0  -0.9053088536893338 -0.8619256809213336 0  -0.8838834764831847 -0.8838834764831843 0  -0.8619256809213338 -0.9053088536893334 0  -0.8394486935587733 -0.9261889066936986 0  -0.8164660536922214 -0.9465110581331053 0  -0.7929916052045574 -0.9662630667034209 0  -0.7690394882257841 -0.9854330345332574 0  -0.7446241306155414 -1.004009414350806 0  -0.7197602392723066 -1.02198101643948 0  -0.6944627912745027 -1.039337015378182 0  -0.6687470248588716 -1.056066956562134 0  -0.6426284302415273 -1.07216076250034 0  -0.6161227402872302 -1.087608738885889 0  -0.5892459210324973 -1.102401580435444 0  -0.5620141620682586 -1.116530376494394 0  -0.5344438667878531 -1.129986616404304 0  -0.506551642506238 -1.142762194629413 0  -0.4783542904563629 -1.154849415639108 0  -0.4498687956687349 -1.166240998543424 0  -0.4211123167402749 -1.176930081478776 0  -0.3921021754986143 -1.186910225741296 0  -0.3628558465680781 -1.196175419665261 0  -0.3333909468436231 -1.2047200822443 0  -0.3037252248790802 -1.21253906649318 0  -0.2738765501960876 -1.219627662548161 0  -0.2438629025201608 -1.225981600504038 0  -0.2137023609503771 -1.231597052986176 0  -0.1834130930692029 -1.236470637455976 0  -0.1530133439990199 -1.240599418248387 0  -0.1225214254119506 -1.243980908340246 0  -0.09195570449958419 -1.246613070848363 0  -0.06133459290927254 -1.248494320256466 0  -0.03067653565364049 -1.249623523370255 0  -2.296212748401287e-16 -1.25 0  0.03067653565364003 -1.249623523370255 0  0.06133459290927207 -1.248494320256466 0  0.09195570449958373 -1.246613070848363 0  0.1225214254119501 -1.243980908340246 0  0.1530133439990195 -1.240599418248387 0  0.1834130930692024 -1.236470637455976 0  0.2137023609503766 -1.231597052986177 0  0.2438629025201604 -1.225981600504038 0  0.2738765501960872 -1.219627662548161 0  0.3037252248790797 -1.21253906649318 0  0.3333909468436227 -1.2047200822443 0  0.3628558465680776 -1.196175419665261 0  0.3921021754986139 -1.186910225741296 0  0.4211123167402745 -1.176930081478776 0  0.4498687956687345 -1.166240998543424 0  0.4783542904563625 -1.154849415639108 0  0.5065516425062375 -1.142762194629413 0  0.5344438667878527 -1.129986616404304 0  0.5620141620682583 -1.116530376494394 0  0.589245921032497 -1.102401580435444 0  0.6161227402872298 -1.087608738885889 0  0.6426284302415269 -1.07216076250034 0  0.6687470248588712 -1.056066956562134 0  0.6944627912745023 -1.039337015378182 0  0.7197602392723061 -1.02198101643948 0  0.7446241306155411 -1.004009414350806 0  0.7690394882257838 -0.9854330345332576 0  0.792991605204557 -0.9662630667034211 0  0.8164660536922209 -0.9465110581331058 0  0.8394486935587729 -0.9261889066936989 0  0.8619256809213336 -0.9053088536893338 0  0.8838834764831842 -0.8838834764831847 0  0.9053088536893333 -0.8619256809213339 0  0.9261889066936986 -0.8394486935587733 0  0.9465110581331053 -0.8164660536922214 0  0.9662630667034209 -0.7929916052045574 0  0.9854330345332574 -0.7690394882257843 0  1.004009414350806 -0.7446241306155416 0  1.02198101643948 -0.7197602392723066 0  1.039337015378182 -0.6944627912745027 0  1.056066956562134 -0.6687470248588716 0  1.07216076250034 -0.6426284302415274 0  1.087608738885889 -0.6161227402872304 0  1.102401580435443 -0.5892459210324974 0  1.116530376494394 -0.5620141620682587 0  1.129986616404304 -0.5344438667878532 0  1.142762194629413 -0.50655164250623
[...]
<PointData  Scalars="f_9097155"> 
<DataArray  type="Float64"  Name="f_9097155"  format="ascii">2.6593881711147387e+00  2.5306695084713402e+00  2.4511634151755457e+00  2.3463222082917663e+00  2.2179052068684908e+00  2.0969545882616263e+00  1.9972501213395919e+00  1.8927070576132785e+00  1.7443555208466657e+00  1.6372336728679202e+00  1.5685502564169549e+00  1.4457627900675016e+00  1.3633888873151714e+00  1.3039362757278272e+00  1.2104643724834343e+00  1.1324192121391110e+00  1.0720291671158777e+00  9.9589830499317467e-01  9.6432708837892112e-01  8.5810777857934772e-01  8.6977147596794602e-01  7.8933227320399824e-01  8.1181047431584885e-01  7.5608485407063186e-01  8.0932801252246966e-01  7.2757810059938877e-01  6.9659610985940013e-01  7.0868562866218709e-01  6.5538699180178961e-01  6.8189910641524465e-01  7.7387279234607387e-01  6.8895632581655097e-01  8.3487711691494548e-01  8.1042204827795727e-01  8.7393158472578070e-01  1.1386352376741524e+00  9.6311250648519342e-01  1.2579585360224335e+00  1.1719106999655451e+00  1.1899068121456029e+00  1.4357102931382426e+00  1.5676774693045012e+00  1.4277833620429039e+00  1.4785499075218040e+00  1.8892762906631988e+00  1.7668480779763478e+00  1.8427501911651603e+00  2.2008796579539562e+00  2.3701864418815148e+00  2.2008627433508843e+00  2.2104705571747680e+00  2.6952276365412939e+00  2.5306195946169066e+00  2.9533180247006920e+00  3.1978231566929303e+00  2.6933692360630719e+00  3.5627188153935125e+00  3.3791896556489935e+00  3.4437554712323064e+00  3.9492201531273246e+00  3.4288647982284801e+00  3.3773425287666075e+00  4.0493097084721832e+00  3.1682690010136625e+00  2.8638107517397509e+00  4.0754998440037946e+00  3.6030165216342436e+00  4.2355527797774952e+00  3.6793252899326805e+00  4.1788685235279228e+00  3.5653191770212405e+00  4.1454800704035781e+00  3.6146106521314305e+00  3.3546682069829150e+00  3.4951827983673058e+00  2.3407159211796036e+00  2.9025657282673718e+00  2.9991116557652782e+00  1.2229782682870520e+00  3.5938931513610822e-01  1.8457170878148896e+00  4.2527167808650818e-01  -2.4428550240410934e-01  1.2429864882211126e+00  -7.4498453408668253e-01  1.1412095605036334e+00  1.2357135858916402e+00  7.9806873303605796e-01  1.8471618532382394e+00  1.2149862015731854e+00  1.6109677586124740e+00  9.6942665393973337e-01  7.8717314148329820e-01  -5.9400514415562300e-01  -4.4025982339499048e-01  -7.4603099028818648e-02  -8.2242041752255157e-01  -9.8127980178645136e-01  -1.2074792203925535e+00  -1.5400838650616482e+00  -1.7536864296885788e+00  -1.5482249463407745e+00  -1.0591002376147800e+00  -4.9626110918777738e-01  -7.6988387057089241e-02  9.5524398491006945e-01  2.0245401546035429e+00  3.4829328583613148e+00  5.0959887245852942e+00  6.8814510464655667e+00  9.1936592668037243e+00  1.0882930589271025e+01  1.3208129698955290e+01  1.5310885970407016e+01  1.6952468279672907e+01  1.8811742304659351e+01  2.1594769159562802e+01  2.4634607766915220e+01  2.7808022489126465e+01  3.1093568950820650e+01  3.4441980951297815e+01  3.7995017904824728e+01  4.1878695643233435e+01  4.5873330101622095e+01  4.9860631709073004e+01  5.3850830863920862e+01  5.7977565327612787e+01  6.2112811010041106e+01  6.6152332897562886e+01  6.9914664965986219e+01  7.3406401087171758e+01  7.6457827183000134e+01  7.9305134821361435e+01  8.1685948013024912e+01  8.3507474736347405e+01  8.4802969448442653e+01  8.5562221212596981e+01  8.6028555399540721e+01  8.5953875738895476e+01  8.5310674312221707e+01  8.4109364236840150e+01  8.1705032929746650e+01  8.0249886852170931e+01  7.8508446048184538e+01  7.5414543575881922e+01  7.2708972318183555e+01  6.9263517643466542e+01  6.5787051960380239e+01  6.1542113952622159e+01  5.8018647579956109e+01  5.4094031218219676e+01  4.9903812507596740e+01  4.5064692236295251e+01  4.1174933067708459e+01  3.7775475522864319e+01  3.3645471888084636e+01  3.0268092583724115e+01  2.6474100760790094e+01  2.3370380002576550e+01  1.9209433729019313e+01  1.5718719932334006e+01  1.3700284117819589e+01  1.0740877836974402e+01  8.2642054988669056e+00  4.0913732428298006e+00  8.0789383484149199e-02  1.9388604770797839e+00  2.2904109938240280e+00  3.4969898759789846e+00  3.0746444841126275e+00  3.4382085419281569e+00  3.4988012647630891e+00  2.0449766450690383e+00  3.5268592855394223e+00  2.7908810890739861e+00  1.5818497200751891e+00  1.7868586238982467e+00  1.3342180157505075e+00  1.3817920760453402e+00  1.4948197393976297e+00  8.1091934799937337e-01  6.8159164721710663e-01  1.9119854736307562e+00  7.3031105554440645e-01  2.3815320161839511e+00  2.5771142641832898e+00  1.5950804492783746e+00  3.1547114947469885e+00  2.6767667766737069e+00  3.3699725600706567e+00  2.4616853405185437e+00  3.6250091987586543e+00  3.8286290443199276e+00  3.4179888245458860e+00  4.0351355807962994e+00  4.0421218862333745e+00  4.3378236246595270e+00  4.4523612891437692e+00  4.1212470196272797e+00  4.1296840405054480e+00  4.5065169294236247e+00  5.0002071382144182e+00  5.3928669866041927e+00  5.0103829302764051e+00  5.0748151677270927e+00  5.6879713876914426e+00  5.1439786818315660e+00  5.6648756076612941e+00  5.9533946639130875e+00  5.6592360579984042e+00  5.3132542623408545e+00  5.9270715430293794e+00  5.9819495256207960e+00  5.8155583728153317e+00  5.9066712273072675e+00  5.9668926127774560e+00  5.5196396865987847e+00  5.9586712799851265e+00  5.9972957568442284e+00  5.4739015583286932e+00  6.0344068347923860e+00  6.0536147112878842e+00  6.0883673569589059e+00  6.2002574784355033e+00  6.0062092543274002e+00  6.1865929258852770e+00  6.0407379895670115e+00  5.7337347190069634e+00  5.8416996271652399e+00  5.6156766441608497e+00  5.5639676855279925e+00  5.6955694615519166e+00  5.5502685089226285e+00  5.2961906806946706e+00  5.2053314896839034e+00  5.0284248163527749e+00  5.1228421719655195e+00  4.7317879011993522e+00  4.7002798448561203e+00  4.6584954328351804e+00  4.6409181038000984e+00  4.4309185505887552e+00  4.3870495083120193e+00  4.3896108260806788e+00  4.2411353772954454e+00  3.9853890740284599e+00  3.7707955570543845e+00  3.6734554615139370e+00  3.5495582035291346e+00  3.5037812782603837e+00  3.3921348254923704e+00  3.2084590851585997e+00  3.1635534666897782e+00  3.0867278993507794e+00  2.9632898750059278e+00  2.8428855765392265e+00  1.2946997002216127e+01  1.2274499211201590e+01  1.1731821551044790e+01  1.1137120375862345e+01  1.0486800594423391e+01  9.8656994681142773e+00  9.1939434628037784e+00  8.7878409896043124e+00  8.3306255585646412e+00  7.8607939537536016e+00  7.4167345121406782e+00  6.9609692050666903e+00  6.5262673968094358e+00  6.1337442168877683e+00  5.7534264831579227e+00  5.3833757974837813e+00  5.0005140353805384e+00  4.7419403502839392e+00  4.4150294258706388e+00  4.1412500264080156e+00  3.9307070158049764e+00  3.6682490995012014e+00  3.4681508318602496e+00  3.2863777289648763e+00  3.1448801745988466e+00  3.0654886655556246e+00  3.0505985305640029e+00  3.0746096115346391e+00  3.1514478449019983e+00  3.2107626407001972e+00  3.2080333847165194e+00  3.2491869141286691e+00  3.4540281239462121e+00  3.6511258224364038e+00  3.9607501363070128e+00  4.3107410167135320e+00  4.4621860606966441e+00  4.9332988383175111e+00  5.5536646215753986e+00  5.8161221667854779e+00  6.4222610960373885e+00  6.7934521048778258e+00  7.1413265518541573e+00  8.0067667605045010e+00  8.5671388512964466e+00  9.4442742823832102e+00  1.0126219479304915e+01  1.0997316479766811e+01  1.1918549449188466e+01  1.2798516118443489e+01  1.3254908823917413e+01  1.4733555799708450e+01  1.5530500775840242e+01  1.6257818187034783e+01  1.7920040438894894e+01  1.9229084391556810e+01  2.0571367255814355e+01  2.1659355280545469e+01  2.2911026693733916e+01  2.4407607548687004e+01  2.5699337008412407e+01  2.7163150515383595e+01  2.8622541131325193e+01  3.0171782382512450e+01  3.1728792945050682e+01  3.3369527092149852e+01  3.5014364971434212e+01  3.6770461854363596e+01  3.7376492106508501e+01  3.8300734001966482e+01  3.9440092508633683e+01  4.1492005559608465e+01  4.3247884289397803e+01  4.4987468269641113e+01  4.7054320277675302e+01  4.9358661805813213e+01  5.0197616663625787e+01  5.1060995920806882e+01  5.3139986701559998e+01  5.5441952653567974e+01  5.6601439572353577e+01  5.8272017745737159e+01  6.0039385075878734e+01  6.0657002272517666e+01  6.1317209584520569e+01  6.2584750338611585e+01  6.2835392141924949e+01  6.2486650630105444e+01  6.1510908157426542e+01  6.2809956620591670e+01  6.2786814390719449e+01  6.2842238984943386e+01  6.2784906363423843e+01  6.1844185900981536e+01  6.1605245965975946e+01  6.2239606989085260e+01  6.2830056592904349e+01  6.3527019619440921e+01  6.4056958909583599e+01  6.4740459996313717e+01  6.5372258425486407e+01  6.5960012158951614e+01  6.6680500339790441e+01  6.7519614849177145e+01  6.8333689205492533e+01  6.9205367025032047e+01  7.0128593442293550e+01  7.0945743255360114e+01  7.1906869447153383e+01  7.2951665588611746e+01  7.3981722341612667e+01  7.4999364576641867e+01  7.6274181447883919e+01  7.7260840898244737e+01  7.7930114116047335e+01  7.7856608864125008e+01  7.8182379272595043e+01  7.8411989912197967e+01  7.8542983277838900e+01  7.8385579612214030e+01  7.8176372160015333e+01  7.7716503563958014e+01  7.6611141188288741e+01  7.5533511233334380e+01  7.4243977883969606e+01  7.2704360710000344e+01  7.0878691173264087e+01  6.8584709501512933e+01  6.6000199378571622e+01  6.3153911331768747e+01  6.0082201678739267e+01  5.6776850539318993e+01  5.3388717032327534e+01  5.0157388867289605e+01  4.6732045025866576e+01  4.3181837433499688e+01  3.9622414940156922e+01  3.6085771012270484e+01  3.3123915402143815e+01  3.0448487387690864e+01  2.7624322273229968e+01  2.4866826855690956e+01  2.2304991556484293e+01  1.9868763344503549e+01  1.7895539985415603e+01  1.6618312398913918e+01  1.5289687861353869e+01  1.4308680408219574e+01  1.3190394547796092e+01  1.2198809998521607e+01  1.0981282571956593e+01  9.8736462240582021e+00  9.0518680299652399e+00  8.3462521277886754e+00  7.7821216098031085e+00  7.6057910439113554e+00  7.4061316806936119e+00  7.3142798713029684e+00  7.4337237468395871e+00  7.2550332970149309e+00  7.7631309023373625e+00  7.8924993934783467e+00  8.6498853041653785e+00  9.2491580405851401e+00  9.9456982026127836e+00  1.0397754035487221e+01  1.1249507160403088e+01  1.2515210840642695e+01  1.2647656777118657e+01  1.3397344764902932e+01  1.4892829739096538e+01  1.5735234609519205e+01  1.6931904271007422e+01  1.7515920718582603e+01  1.8713461865979109e+01  1.9596874032372263e+01  2.0547567577639857e+01  2.1583642195732860e+01  2.2209542047420200e+01  2.3208423139704379e+01  2.4207721459094557e+01  2.4642275782564610e+01  2.5214957590467716e+01  2.6181577392203131e+01  2.7002895229946066e+01  2.7313164982246580e+01  2.7633476432453190e+01  2.8868698343130358e+01  2.9343913616276854e+01  2.9552482233583582e+01  3.0295171455002407e+01  3.1639664037777372e+01  3.1706764812377511e+01  3.2788251995309061e+01  3.3253193568465015e+01  3.3605370811006118e+01  3.4087331620221036e+01  3.4587493034139875e+01  3.4746997232030822e+01  3.4792946103617282e+01  3.4576788283565442e+01  3.5082683680562511e+01  3.5441320924948670e+01  3.5179910681309423e+01  3.5939571660524862e+01  3.5972628916710832e+01  3.4762974818221885e+01  3.4566861526105356e+01  3.4532782595759279e+01  3.4546735735092966e+01  3.4658320833943876e+01  3.4909554986560600e+01  3.4466371408877777e+01  3.4112686640453170e+01  3.3916435322733669e+01  3.3847436911214018e+01  3.3739845881552320e+01  3.3146969024894332e+01  3.2782102493705807e+01  3.2610365532235924e+01  3.2504669164745152e+01  3.2324490749004660e+01  3.2111894604216623e+01  3.1889612145035255e+01  3.1871669519446765e+01  3.1342374403787247e+01  3.0790403832657127e+01  2.9885093144127868e+01  2.9550936399540870e+01  2.9133114343306360e+01  2.8497212144992428e+01  2.8020377572780124e+01  2.7468075535418802e+01  2.7235949591179509e+01  2.6663854339741025e+01  2.6025867497925667e+01  2.5345209231594222e+01  2.4808354430862252e+01  2.4202065330759364e+01  2.3517761589537763e+01  2.2915758498623063e+01  2.2354854422719416e+01  2.1847584525261848e+01  2.1192365450164594e+01  2.0524645487946113e+01  1.9826837350589841e+01  1.9183734164616396e+01  1.8541026772879320e+01  1.7923941624092532e+01  1.7328110472995288e+01  1.6710557875120795e+01  1.6138837217427895e+01  1.5518831947364477e+01  1.4855415549453660e+01  1.4239040383224058e+01  1.3602994718628038e+01  2.8136503017241834e+00  3.7518713857629384e+00  2.3067610233534146e+00  4.5032784644726194e+00  1.8289494863678024e+00  4.7445661379468849e+00  1.4722211012637751e+00  7.1107487585309626e+00  7.4419806190172333e-01  1.0040807909964469e+01  1.9079247100022553e-01  1.1392867198643460e+01  -3.7488886402349691e-01  1.2058300037966887e+01  -9.2929062777204074e-01  1.2673027039088739e+01  -9.4189560283048934e-01  1.1665441397245162e+01  2.3007875804202875e+00  4.0901393535255592e-01  2.2362249601316964e+00  2.2539340956249965e+00  2.2830913254410454e+00  1.0912633748600056e+01  5.2279770118434836e+00  8.0585027474744333e+00  1.3674111088863178e+01  1.0059664139905045e+01  2.4926738768679964e+00  2.6618599240993213e+00  1.5878613617444289e+01  2.4547403806507901e+00  2.6813774231490743e+00  2.9475773980901447e+00  2.3614655713119372e+00  1.7160474755147565e+01  8.1791746284184774e-01  2.2086050396285488e+00  7.8883252551798249e+00  2.0307882445293473e+00  2.5045631248642253e+00  1.0065612814793498e+01  3.0014398603792127e+00  2.5080187703640364e+00  1.9374346306517767e+00  1.7126425038416773e+01  -1.6029885148134720e-01  2.7036180426736918e+00  2.7660897862076155e+00  1.9274306286263032e+00  2.9781894182475392e+00  7.4499244136026492e+00  2.8182861103125769e+00  3.2682310174106264e+00  3.9141456079120380e+00  6.7586349703566828e+00  7.7460234019763243e+00  2.3161514679053363e+00  3.0170957951505035e+00  2.0134990246811851e-01  1.8327135740572839e+01  1.2571758074875955e+01  1.5073039029587990e+01  -1.9409682808271370e-01  1.7092795249616117e+01  1.8886963856676331e+01  3.0670572239042015e+00  3.1918771134129678e+00  1.2769921125832677e+00  2.3033913621820994e+00  1.2923816491318014e+01  1.8057605357553121e+00  1.5380663211429717e+01  7.5260118338997406e-01  2.9794912877780839e+00  -2.9115467098274783e-01  -1.7903457686092366e+00  3.8578616590423218e+00  2.2303545062695664e+00  2.7001745855486003e+00  2.7605912497666956e+00  3.8185673383931586e+00  1.8445590303378278e+01  3.1870424366116290e+00  3.3943032011515011e+00  1.7455699159801515e+01  2.3801260162517601e+00  1.3842566967433736e+01  5.7224561305922936e+00  2.1484152576852180e+00  1.9721585472667645e+01  1.6810831412061391e+00  6.0811002217408372e-01  2.1102524762329358e+00  -3.4336040235793734e+00  3.2280566384333902e+00  2.9186463233943667e+00  1.3330191260007676e+00  3.9248237791504965e+00  6.4757275893670547e+00  2.4433874077906783e+01  2.1421001258576768e+00  1.7588340978907888e+00  2.4210176904412459e+00  1.2724889287177554e+01  3.1607989252101345e+00  2.6875714426672075e+00  3.0365748188696950e+00  5.5297475168343091e+00  1.5585749814082788e+00  1.2236672761671255e+01  7.4245708249989013e+00  2.0046569547345672e+00  -3.0185271749047966e+00  1.9119291296749395e+01  3.0919644920523148e+00  8.3452168102745752e+00  3.6214431848697557e+00  1.4773374508002259e+00  4.2391143784435599e+00  9.3618812861409673e+00  2.0456640432373372e+00  2.5139822154104370e+00  6.1132970971240503e+00  1.6267941289926169e+00  1.3795847465258990e+00  2.7423549009870449e+01  2.4304545913918876e+00  2.2229162923774775e+00  7.0748286483026934e+00  1.3608861747134005e+01  2.1663598469636960e+00  1.6914900479796831e+00  2.8635448630016103e+00  1.2230057196884676e+01  9.8269670541318170e+00  9.7310620041765059e+00  8.2470118289377616e+00  -2.8026892260504996e+00  4.5857845425497015e+00  3.7968718307027696e+00  3.5180731840998591e+00  3.2489158162546330e+00  1.8025886970152896e+00  1.5667537595892902e+01  1.6775022452344736e+01  2.5943152878491609e+00  3.3482424671900417e+00  3.0794201317019270e+00  5.2293033801388611e-01  2.9368869465308034e+00  1.5516524992219023e+00  2.2312257648233302e+00  8.6141252582692318e-01  3.0508452324888289e+00  2.7083256968148808e+00  4.9491763511827278e+00  2.0653721006308072e+00  3.9766705695106350e+00  3.9678283030927486e+00  2.0871778035102304e+00  3.1272173725869887e+00  -2.7959027844999557e-01  1.5833658738484226e+01  7.3170082251344915e-01  1.0776169657438306e+01  1.8435785418595877e+01  1.9623131496052718e+01  2.0479838114727875e+00  6.2681447254433991e+00  2.6775170752390958e+00  1.5703195304556296e+01  1.1199188023236902e+01  4.6052910306123627e+00  3.1046688882353514e+01  1.0943980723577816e+01  1.7780246008587473e+00  3.3897812154131119e+00  1.6305800563093378e+00  8.4544720186388020e-02  3.6918006118623303e+00  4.0493232058245017e+00  3.3198708303459066e+00  2.1983009187521194e+01  2.0966021263740490e+01  1.8677549600987249e+00  1.0123528619172239e+01  7.6269915380454090e-01  1.1197209604276273e+00  1.3186350508058283e+01  -2.8486406151771737e+00  3.0782388652810728e+00  1.8507234689105023e+00  2.3650347221429162e+00  9.8325899523604949e+00  4.1836455791630893e+00  2.7077370195215211e+00  -4.3839451859656237e-01  4.8870962610254285e+00  1.0993864618693607e+00  2.2418812749894768e+00  1.1080764215498801e+01  2.2599977507655023e+01  3.4781179192387675e+01  8.2901286809098984e-01  1.4582978975464204e+01  2.1739463104141672e+00  1.2564182662135754e+00  1.2667269157086951e+01  2.3666975108241832e+00  5.8629786730541351e+00  2.4424629242567977e-01  2.2307972631059019e+00  2.3492984190820829e+00  2.5907274712126074e+00  4.4751212514322694e+00  -1.5827048355837250e-01  1.5415128163113204e+01  3.3088022959699073e+00  -2.2441633438231281e+00  1.5631399635847016e+01  3.5044988657372724e+00  3.9214663729378594e+00  4.9850978050823738e+00  1.7504012991137534e+00  2.3079897425823424e+00  1.4386175555487823e+00  7.1890286815545759e+00  1.4800555100087665e+01  1.9597734481031271e+01  5.1521745681557070e+00  2.2754970289185547e+01  1.5321601589159913e+01  3.1329662843610411e+00  3.3337161594050255e+00  3.6276405807015970e+00  4.2614410272076375e+00  2.7386912280024163e+00  1.6319369310714840e+00  3.9906180211513970e+01  4.2501881049534482e+00  1.5538268751277650e+01  2.1053768903118911e+01  1.3198332442518805e+00  1.1379027178244225e+01  4.1050076632695092e+00  1.0697708343773494e+01  3.2432352063678858e+00  2.5145797973288762e+01  4.4351466181549615e+00  9.6361503879852395e-01  1.2728299823416503e+01  -1.1068049420914488e+00  2.8777069495013334e+00  3.6889221943094319e+00  2.3678914862791509e+00  2.6586122360773343e+00  2.7964256096137921e+00  1.5137179355319961e+00  1.8458189088516864e+01  3.7431564946929408e+00  3.6997153170271488e+00  2.7281318101989172e+00  2.7017633128516798e+00  4.4469127092964555e+01  1.6114326855925818e+00  2.5331488868799208e+00  -5.8245545723693992e-01  7.7223123058577743e+00  2.3626406461631532e+01  2.4859537843228246e+01  -6.5126764256786795e-01  -3.9442403435347034e-01  1.3989045665331792e+00  9.8081187305154884e+00  3.1583361310966747e+00  1.1643848105299337e+01  2.4422163092661640e+00  8.7179751666931438e+00  2.8585851429137690e+00  4.3897135397080795e+00  1.2866388702722136e+00  3.3805210920256981e+00  1.1552661487336380e+01  2.3277412975467492e+01  4.3365899510552239e+00  1.5970642214931884e+01  -4.2434590548121637e-01  1.4224100071531964e+00  4.4114147497492091e+00  -1.2106050426449988e-01  -1.3718711469979331e-01  2.4317559033415883e+01  3.0604625821219078e+00  1.5907237311909221e+00  1.5100116600467641e+00  8.5005540362315664e+00  3.4476975240811374e+00  1.7723667767664715e+01  5.2832559906797050e-01  1.1632097697183534e+00  1.7117810175568680e+00  2.3583858645647875e+00  4.5850697583986628e+00  3.1341725199940833e+00  2.3726148197569835e+01  2.1965716729523930e+00  3.1696239727563889e+00  4.7864604455769829e+01  9.4314907371800327e+00  1.4508625610789089e+01  1.4464368598602654e+01  2.1831070439071651e+00  3.5108830298448379e+00  2.2803698235800987e+00  2.7310757124337844e+0