<?xml version="1.0"?>
<VTKFile type="UnstructuredGrid"  version="0.1"  >
<UnstructuredGrid>
<Piece  NumberOfPoints="3914" NumberOfCells="6504">
<Points>
<DataArray  type="Float64"  NumberOfComponents="3"  format="ascii">1.25 0 0  1.249623523370255 0.03067653565364036 0  1.248494320256466 0.06133459290927252 0  1.246613070848363 0.09195570449958429 0  1.243980908340246 0.1225214254119508 0  1.240599418248387 0.1530133439990203 0  1.236470637455976 0.1834130930692022 0  1.231597052986177 0.2137023609503765 0  1.225981600504038 0.2438629025201603 0  1.219627662548161 0.2738765501960873 0  1.21253906649318 0.3037252248790798 0  1.2047200822443 0.333390946843623 0  1.196175419665261 0.3628558465680779 0  1.186910225741296 0.3921021754986144 0  1.176930081478776 0.4211123167402751 0  1.166240998543424 0.4498687956687352 0  1.154849415639108 0.4783542904563622 0  1.142762194629413 0.5065516425062373 0  1.129986616404304 0.5344438667878526 0  1.116530376494394 0.5620141620682582 0  1.102401580435444 0.5892459210324971 0  1.087608738885889 0.61612274028723 0  1.07216076250034 0.642628430241527 0  1.056066956562134 0.6687470248588714 0  1.039337015378182 0.6944627912745027 0  1.02198101643948 0.7197602392723067 0  1.004009414350806 0.7446241306155417 0  0.9854330345332579 0.7690394882257835 0  0.9662630667034212 0.7929916052045569 0  0.9465110581331058 0.8164660536922209 0  0.9261889066936989 0.8394486935587729 0  0.9053088536893338 0.8619256809213336 0  0.8838834764831844 0.8838834764831843 0  0.8619256809213337 0.9053088536893337 0  0.8394486935587729 0.9261889066936989 0  0.8164660536922209 0.9465110581331055 0  0.7929916052045569 0.9662630667034212 0  0.7690394882257835 0.9854330345332578 0  0.7446241306155419 1.004009414350806 0  0.7197602392723067 1.02198101643948 0  0.6944627912745028 1.039337015378182 0  0.6687470248588716 1.056066956562134 0  0.642628430241527 1.07216076250034 0  0.6161227402872301 1.087608738885889 0  0.5892459210324973 1.102401580435444 0  0.5620141620682583 1.116530376494394 0  0.5344438667878527 1.129986616404304 0  0.5065516425062373 1.142762194629413 0  0.4783542904563623 1.154849415639108 0  0.4498687956687353 1.166240998543424 0  0.4211123167402751 1.176930081478776 0  0.3921021754986145 1.186910225741296 0  0.3628558465680779 1.196175419665261 0  0.333390946843623 1.2047200822443 0  0.30372522487908 1.21253906649318 0  0.2738765501960872 1.219627662548161 0  0.2438629025201604 1.225981600504038 0  0.2137023609503767 1.231597052986177 0  0.1834130930692022 1.236470637455976 0  0.1530133439990203 1.240599418248387 0  0.122521425411951 1.243980908340246 0  0.09195570449958432 1.246613070848363 0  0.06133459290927266 1.248494320256466 0  0.03067653565364033 1.249623523370255 0  7.654042494670958e-17 1.25 0  -0.03067653565364018 1.249623523370255 0  -0.06133459290927251 1.248494320256466 0  -0.09195570449958416 1.246613070848363 0  -0.1225214254119508 1.243980908340246 0  -0.1530133439990202 1.240599418248387 0  -0.1834130930692021 1.236470637455976 0  -0.2137023609503766 1.231597052986177 0  -0.2438629025201602 1.225981600504038 0  -0.2738765501960871 1.219627662548161 0  -0.3037252248790798 1.21253906649318 0  -0.3333909468436229 1.2047200822443 0  -0.3628558465680777 1.196175419665261 0  -0.3921021754986143 1.186910225741296 0  -0.4211123167402749 1.176930081478776 0  -0.4498687956687352 1.166240998543424 0  -0.4783542904563621 1.154849415639108 0  -0.5065516425062372 1.142762194629413 0  -0.5344438667878524 1.129986616404304 0  -0.5620141620682584 1.116530376494394 0  -0.5892459210324972 1.102401580435444 0  -0.61612274028723 1.087608738885889 0  -0.642628430241527 1.07216076250034 0  -0.6687470248588713 1.056066956562134 0  -0.6944627912745025 1.039337015378182 0  -0.7197602392723067 1.02198101643948 0  -0.7446241306155417 1.004009414350806 0  -0.7690394882257834 0.9854330345332579 0  -0.7929916052045567 0.9662630667034213 0  -0.8164660536922207 0.9465110581331059 0  -0.8394486935587731 0.9261889066936988 0  -0.8619256809213337 0.9053088536893337 0  -0.8838834764831843 0.8838834764831844 0  -0.9053088536893334 0.8619256809213338 0  -0.9261889066936986 0.8394486935587732 0  -0.9465110581331058 0.8164660536922208 0  -0.9662630667034212 0.7929916052045569 0  -0.9854330345332578 0.7690394882257836 0  -1.004009414350806 0.7446241306155419 0  -1.02198101643948 0.7197602392723068 0  -1.039337015378182 0.6944627912745027 0  -1.056066956562134 0.6687470248588714 0  -1.07216076250034 0.6426284302415273 0  -1.087608738885889 0.6161227402872302 0  -1.102401580435444 0.5892459210324973 0  -1.116530376494394 0.5620141620682586 0  -1.129986616404304 0.5344438667878525 0  -1.142762194629413 0.5065516425062374 0  -1.154849415639108 0.4783542904563624 0  -1.166240998543424 0.4498687956687354 0  -1.176930081478776 0.4211123167402754 0  -1.186910225741296 0.3921021754986143 0  -1.196175419665261 0.362855846568078 0  -1.2047200822443 0.3333909468436231 0  -1.21253906649318 0.3037252248790801 0  -1.219627662548161 0.2738765501960876 0  -1.225981600504038 0.2438629025201608 0  -1.231597052986177 0.2137023609503765 0  -1.236470637455976 0.1834130930692023 0  -1.240599418248387 0.1530133439990204 0  -1.243980908340246 0.122521425411951 0  -1.246613070848363 0.09195570449958466 0  -1.248494320256466 0.06133459290927246 0  -1.249623523370255 0.03067653565364041 0  -1.25 1.530808498934192e-16 0  -1.249623523370255 -0.0306765356536401 0  -1.248494320256466 -0.06133459290927215 0  -1.246613070848363 -0.09195570449958437 0  -1.243980908340246 -0.1225214254119507 0  -1.240599418248387 -0.1530133439990201 0  -1.236470637455976 -0.183413093069202 0  -1.231597052986177 -0.2137023609503762 0  -1.225981600504038 -0.2438629025201605 0  -1.219627662548161 -0.2738765501960873 0  -1.21253906649318 -0.3037252248790798 0  -1.2047200822443 -0.3333909468436228 0  -1.196175419665261 -0.3628558465680776 0  -1.186910225741296 -0.392102175498614 0  -1.176930081478776 -0.4211123167402752 0  -1.166240998543424 -0.4498687956687352 0  -1.154849415639108 -0.4783542904563621 0  -1.142762194629413 -0.5065516425062371 0  -1.129986616404304 -0.5344438667878523 0  -1.116530376494394 -0.5620141620682583 0  -1.102401580435444 -0.5892459210324971 0  -1.087608738885889 -0.6161227402872299 0  -1.07216076250034 -0.6426284302415269 0  -1.056066956562134 -0.6687470248588712 0  -1.039337015378182 -0.6944627912745025 0  -1.02198101643948 -0.7197602392723067 0  -1.004009414350806 -0.7446241306155416 0  -0.9854330345332579 -0.7690394882257834 0  -0.9662630667034213 -0.7929916052045566 0  -0.946511058133106 -0.8164660536922207 0  -0.9261889066936989 -0.8394486935587731 0  -0.9053088536893338 -0.8619256809213336 0  -0.8838834764831847 -0.8838834764831843 0  -0.8619256809213338 -0.9053088536893334 0  -0.8394486935587733 -0.9261889066936986 0  -0.8164660536922214 -0.9465110581331053 0  -0.7929916052045574 -0.9662630667034209 0  -0.7690394882257841 -0.9854330345332574 0  -0.7446241306155414 -1.004009414350806 0  -0.7197602392723066 -1.02198101643948 0  -0.6944627912745027 -1.039337015378182 0  -0.6687470248588716 -1.056066956562134 0  -0.6426284302415273 -1.07216076250034 0  -0.6161227402872302 -1.087608738885889 0  -0.5892459210324973 -1.102401580435444 0  -0.5620141620682586 -1.116530376494394 0  -0.5344438667878531 -1.129986616404304 0  -0.506551642506238 -1.142762194629413 0  -0.4783542904563629 -1.154849415639108 0  -0.4498687956687349 -1.166240998543424 0  -0.4211123167402749 -1.176930081478776 0  -0.3921021754986143 -1.186910225741296 0  -0.3628558465680781 -1.196175419665261 0  -0.3333909468436231 -1.2047200822443 0  -0.3037252248790802 -1.21253906649318 0  -0.2738765501960876 -1.219627662548161 0  -0.2438629025201608 -1.225981600504038 0  -0.2137023609503771 -1.231597052986176 0  -0.1834130930692029 -1.236470637455976 0  -0.1530133439990199 -1.240599418248387 0  -0.1225214254119506 -1.243980908340246 0  -0.09195570449958419 -1.246613070848363 0  -0.06133459290927254 -1.248494320256466 0  -0.03067653565364049 -1.249623523370255 0  -2.296212748401287e-16 -1.25 0  0.03067653565364003 -1.249623523370255 0  0.06133459290927207 -1.248494320256466 0  0.09195570449958373 -1.246613070848363 0  0.1225214254119501 -1.243980908340246 0  0.1530133439990195 -1.240599418248387 0  0.1834130930692024 -1.236470637455976 0  0.2137023609503766 -1.231597052986177 0  0.2438629025201604 -1.225981600504038 0  0.2738765501960872 -1.219627662548161 0  0.3037252248790797 -1.21253906649318 0  0.3333909468436227 -1.2047200822443 0  0.3628558465680776 -1.196175419665261 0  0.3921021754986139 -1.186910225741296 0  0.4211123167402745 -1.176930081478776 0  0.4498687956687345 -1.166240998543424 0  0.4783542904563625 -1.154849415639108 0  0.5065516425062375 -1.142762194629413 0  0.5344438667878527 -1.129986616404304 0  0.5620141620682583 -1.116530376494394 0  0.589245921032497 -1.102401580435444 0  0.6161227402872298 -1.087608738885889 0  0.6426284302415269 -1.07216076250034 0  0.6687470248588712 -1.056066956562134 0  0.6944627912745023 -1.039337015378182 0  0.7197602392723061 -1.02198101643948 0  0.7446241306155411 -1.004009414350806 0  0.7690394882257838 -0.9854330345332576 0  0.792991605204557 -0.9662630667034211 0  0.8164660536922209 -0.9465110581331058 0  0.8394486935587729 -0.9261889066936989 0  0.8619256809213336 -0.9053088536893338 0  0.8838834764831842 -0.8838834764831847 0  0.9053088536893333 -0.8619256809213339 0  0.9261889066936986 -0.8394486935587733 0  0.9465110581331053 -0.8164660536922214 0  0.9662630667034209 -0.7929916052045574 0  0.9854330345332574 -0.7690394882257843 0  1.004009414350806 -0.7446241306155416 0  1.02198101643948 -0.7197602392723066 0  1.039337015378182 -0.6944627912745027 0  1.056066956562134 -0.6687470248588716 0  1.07216076250034 -0.6426284302415274 0  1.087608738885889 -0.6161227402872304 0  1.102401580435443 -0.5892459210324974 0  1.116530376494394 -0.5620141620682587 0  1.129986616404304 -0.5344438667878532 0  1.142762194629413 -0.50655164250623
[...]
<PointData  Scalars="f_4662620"> 
<DataArray  type="Float64"  Name="f_4662620"  format="ascii">9.8721165415937087e+00  1.0690884374454342e+01  1.2017174149041939e+01  1.2825822269283172e+01  1.3800407600431239e+01  1.4714412445892210e+01  1.5863757886334687e+01  1.6784696874015758e+01  1.7492727950015524e+01  1.8240065704581760e+01  1.9541312331917652e+01  2.0200638101733578e+01  2.1061836174157719e+01  2.2309472402280861e+01  2.3356221673431762e+01  2.3801301936156136e+01  2.4737803907389452e+01  2.5793370748030139e+01  2.7013188343501003e+01  2.7675046755757712e+01  2.8559803235567806e+01  2.8717058610362283e+01  3.0110523775262070e+01  3.0419438695986923e+01  3.1598595965077742e+01  3.2020401634893702e+01  3.3088578182515874e+01  3.4398005952246365e+01  3.5383062739648651e+01  3.5730775044517188e+01  3.6819015455420661e+01  3.7613611831901444e+01  3.8469677394947837e+01  3.8652887929609768e+01  3.9290426713885417e+01  4.0265295809340152e+01  4.0291728168207761e+01  4.1773173021221858e+01  4.1962884169701908e+01  4.2740186719236085e+01  4.3666079313640317e+01  4.4816415891911603e+01  4.5047561172899115e+01  4.6034839595076576e+01  4.7151622141667225e+01  4.7712141927150704e+01  4.8576368214643615e+01  4.9420635258198402e+01  5.0593343384710181e+01  5.0938653649751650e+01  5.1694399571254046e+01  5.2648114083210558e+01  5.3789276925652487e+01  5.4600315911147135e+01  5.5908625938060730e+01  5.6538184865134554e+01  5.7812573627696949e+01  5.8783614180714515e+01  6.0067562797691195e+01  6.1238477058492755e+01  6.2134768842569407e+01  6.3235043383512725e+01  6.4613734257502827e+01  6.5744913513339014e+01  6.7521662960426738e+01  6.8923913178698143e+01  7.0451217693275069e+01  7.2079173036519919e+01  7.4407213695103550e+01  7.5457173582871320e+01  7.7665792021348437e+01  7.9839513622598687e+01  8.2040329504066790e+01  8.4591575656060684e+01  8.6054371404390722e+01  8.9049364395235784e+01  9.0206001464483137e+01  9.5256523829785124e+01  9.5545295399919468e+01  9.8395649564085261e+01  1.0269373724316600e+02  1.0211397168654941e+02  1.0955980285145922e+02  1.0716936585010748e+02  1.1467266233902592e+02  1.1180675214042135e+02  1.2679039803559547e+02  1.1997206978258986e+02  1.2537334439518308e+02  1.3074830439335378e+02  1.3945689801619045e+02  1.5108332092958184e+02  1.6157641673511617e+02  1.7078645970073993e+02  1.8579647367810662e+02  1.9147307136370247e+02  1.9885671605126649e+02  2.0598896271737954e+02  2.1665662076769124e+02  2.2830707698575344e+02  2.3890561222834486e+02  2.4732122330121075e+02  2.5606014905088250e+02  2.6458060623409159e+02  2.7423119758359866e+02  2.8212825616444746e+02  2.9074766738193119e+02  2.9944939585159716e+02  3.0765377078913173e+02  3.1461079189215087e+02  3.2400029270337905e+02  3.2820600765543429e+02  3.3433156163853471e+02  3.3791483247141088e+02  3.3959180156128707e+02  3.4090487146674445e+02  3.3985716928291595e+02  3.3769268109673669e+02  3.3279648981888460e+02  3.2452099412284787e+02  3.1359648558660035e+02  3.0227059282665863e+02  2.8851699826889285e+02  2.7268884916966857e+02  2.5330298162998784e+02  2.2790919410270129e+02  2.0430265929554190e+02  1.7868131824313582e+02  1.5172339200480943e+02  1.2277407513276040e+02  9.2868405204415609e+01  5.9349956743500435e+01  3.0198322615336537e+01  1.8109805262176386e+00  -2.6286723994492409e+01  -5.2978959201252046e+01  -7.9901243631709534e+01  -1.0235530282158447e+02  -1.2257331385799016e+02  -1.4107259896283296e+02  -1.5735542192058921e+02  -1.7214759549356339e+02  -1.8312782681749809e+02  -1.9036097633354080e+02  -2.0020350422813678e+02  -2.0494989926427746e+02  -2.1164646672403117e+02  -2.1280858960412144e+02  -2.1459604352480613e+02  -2.1484814117439606e+02  -2.1385046667632139e+02  -2.1178701147917261e+02  -2.0777039786933523e+02  -2.0421054492617904e+02  -1.9996192662041338e+02  -1.9493513549845750e+02  -1.9048901934968688e+02  -1.8599970061770728e+02  -1.7860083583411304e+02  -1.7283922387922129e+02  -1.6704724695367284e+02  -1.6132014560724153e+02  -1.5670688244423289e+02  -1.5069974985994318e+02  -1.4668846273285703e+02  -1.4184084736264538e+02  -1.3721115930793724e+02  -1.3076260542619340e+02  -1.2571884586741675e+02  -1.1928453555534685e+02  -1.1513684974524247e+02  -1.1073164784892114e+02  -1.0451837278528960e+02  -1.0171069500459514e+02  -9.7497532115843626e+01  -9.1982779137142913e+01  -9.0108890022117507e+01  -8.6128805361630128e+01  -8.2923996912207571e+01  -7.9152845008917652e+01  -7.6833152533293770e+01  -7.3733370632474958e+01  -7.1526003249407026e+01  -6.9164156972391112e+01  -6.8319057516611622e+01  -6.5341505922685542e+01  -6.3309292336678837e+01  -6.2395399298845518e+01  -6.0357216381367685e+01  -5.8480776308416374e+01  -5.7181290346708572e+01  -5.6015878272681533e+01  -5.3840086448643994e+01  -5.2901359226702986e+01  -5.1224761751116674e+01  -4.9981485436126889e+01  -4.9029848122537906e+01  -4.7365295990692424e+01  -4.6389683490647016e+01  -4.5198170972203648e+01  -4.3942003386114976e+01  -4.2973432529889003e+01  -4.1743754260211063e+01  -4.0865510446166304e+01  -3.9647211138239470e+01  -3.8583880574788395e+01  -3.7830069447686490e+01  -3.6607238927417271e+01  -3.5845539956249723e+01  -3.5009401065491843e+01  -3.3668930495806030e+01  -3.2957151920893743e+01  -3.1937283857134229e+01  -3.1094232310421354e+01  -3.0252809548938373e+01  -2.9092003935065602e+01  -2.8360935771845657e+01  -2.7426339595837231e+01  -2.6314336644517319e+01  -2.5698768952663517e+01  -2.4560407100263561e+01  -2.3966773424697276e+01  -2.3091099934681363e+01  -2.2054203377540208e+01  -2.1303034067308353e+01  -2.0188103776019041e+01  -1.9453464811690306e+01  -1.8392875787795447e+01  -1.7192575422776763e+01  -1.6565174839907634e+01  -1.5576879472242807e+01  -1.4595470057953518e+01  -1.3469227886738748e+01  -1.2870765847492436e+01  -1.1502697385887224e+01  -1.0896559466740076e+01  -9.4366854035681129e+00  -9.1232924591525677e+00  -7.6324343084462338e+00  -6.9758798772378787e+00  -5.6481976756979719e+00  -4.9977240615706817e+00  -3.9163360069029354e+00  -2.8348427055612779e+00  -2.0188742017792083e+00  -1.0697427878551864e+00  -2.6135600132477899e-01  1.0844401905239973e+00  1.8067024944491239e+00  3.1012998379991870e+00  4.3047937325594727e+00  4.6854675812942403e+00  6.2985529901399202e+00  6.9617171941352129e+00  8.1277127718737621e+00  8.9530441784671222e+00  3.2885777303901811e+01  3.3349924330681496e+01  3.3609803157269504e+01  3.4999295710825137e+01  3.5634926850568249e+01  3.5707079947428980e+01  3.6366311675538419e+01  3.7115743600710964e+01  3.7355541562085712e+01  3.8184312931054322e+01  3.8468726374587000e+01  3.9084024371353422e+01  3.9417831328468424e+01  3.9330484051882998e+01  4.0068010268242574e+01  4.0192274659217539e+01  4.0373969889867546e+01  4.1112707663953188e+01  4.1286198421623546e+01  4.1389740301736701e+01  4.0804017040284116e+01  4.1352733734796594e+01  4.1237685343096608e+01  4.0920276841781202e+01  4.0253138522655746e+01  3.9575480321556498e+01  3.9298873058401497e+01  3.8670975563737812e+01  3.8352112484952080e+01  3.7557711246819089e+01  3.6975866603719410e+01  3.5774872527951118e+01  3.4860013735952087e+01  3.4018354938664103e+01  3.2887642147432821e+01  3.1447827180165092e+01  2.9988981399608321e+01  2.8744377125184556e+01  2.7308645370919798e+01  2.5810816782001432e+01  2.3967442032532752e+01  2.2171851697191485e+01  2.0067972300104802e+01  1.8152434940385714e+01  1.6121593473475706e+01  1.3911604424753918e+01  1.1467978465000902e+01  9.1506740223894703e+00  6.3628126485739056e+00  3.6919112162688794e+00  7.9458470948358928e-01  -1.9366947207003238e+00  -4.5788147309707306e+00  -7.3889297862517624e+00  -1.0560691801314276e+01  -1.3682009914546208e+01  -1.7154301742375761e+01  -2.0712977668153425e+01  -2.4320028490944299e+01  -2.8321524824743420e+01  -3.2546255328548497e+01  -3.6799153473132534e+01  -4.1097325041967707e+01  -4.5661058030625661e+01  -5.0380421315066869e+01  -5.5193636046116673e+01  -5.9887950231895253e+01  -6.5081459864168480e+01  -6.9894390418426383e+01  -7.4780954391333680e+01  -8.0015798126256939e+01  -8.4933707403876667e+01  -9.0089431305548857e+01  -9.5204418520290147e+01  -1.0060506147623403e+02  -1.0606955797673710e+02  -1.1109749695872844e+02  -1.1658646034852826e+02  -1.2199207080068648e+02  -1.2746566345075668e+02  -1.3274117294566079e+02  -1.3838200043860320e+02  -1.4377436269738908e+02  -1.4876873832725695e+02  -1.5446116669758734e+02  -1.5948412837951898e+02  -1.6383382270873074e+02  -1.6870938369455237e+02  -1.7291791800075075e+02  -1.7696773433610258e+02  -1.8132605746901450e+02  -1.8469155229976059e+02  -1.8837739574399794e+02  -1.9146010505685325e+02  -1.9519494012094415e+02  -1.9787045810829943e+02  -2.0059438513746193e+02  -2.0267776857300157e+02  -2.0585873373893622e+02  -2.0699044738369815e+02  -2.0970268637347547e+02  -2.1019671997043773e+02  -2.1154106502627008e+02  -2.1284146997293493e+02  -2.1272661467220991e+02  -2.1332039335732867e+02  -2.1313074202479714e+02  -2.1222690366601938e+02  -2.1118638462031288e+02  -2.0999271738706821e+02  -2.0714292373736879e+02  -2.0484525243105961e+02  -2.0095573268595678e+02  -1.9367155180330280e+02  -1.8737769444804943e+02  -1.7975931110387856e+02  -1.7144736535292500e+02  -1.6189963297065526e+02  -1.5142164337109094e+02  -1.4199973774227726e+02  -1.3891813019454938e+02  -1.1635402704952246e+02  -1.0065466598913017e+02  -8.3728970425284473e+01  -6.6096953581367785e+01  -4.9782239110157576e+01  -4.6215347845828937e+01  -1.3162240186708004e+01  1.0504621560667152e+01  3.3738936429851634e+01  5.6352108316262736e+01  8.0634790095029061e+01  9.2253401436033144e+01  1.1844022349582703e+02  1.4403484253616509e+02  1.6688209809659489e+02  1.8850120826550679e+02  2.0962206450751020e+02  2.2241560109452791e+02  2.4135590724682515e+02  2.5884502526861894e+02  2.7609400292944019e+02  2.8871283545415758e+02  2.9977336395139002e+02  3.0922692785114441e+02  3.1674634318443077e+02  3.2167863253013371e+02  3.2559942297300051e+02  3.3001781478200121e+02  3.3300710279705629e+02  3.3459236279847460e+02  3.3493112483152248e+02  3.3476627699651016e+02  3.3329211402733193e+02  3.3044110896389179e+02  3.2790602168009156e+02  3.2462228316975876e+02  3.2056135564085196e+02  3.1623786873152835e+02  3.1048132836667952e+02  3.0556825767479091e+02  2.9987722629375082e+02  2.9487436381664281e+02  2.8957445981579735e+02  2.8386249969242130e+02  2.7759034919047474e+02  2.7119569433856446e+02  2.6502626519743006e+02  2.5798336817504770e+02  2.5139299288866306e+02  2.4565186800474973e+02  2.3958848638086977e+02  2.3253669611957071e+02  2.2441495855553006e+02  2.1733698514938280e+02  2.1057058039264160e+02  2.0454230606642668e+02  1.9824892672566793e+02  1.9169958083905709e+02  1.8491169511160612e+02  1.7825222688870608e+02  1.7133436557618521e+02  1.6452230985995212e+02  1.5812396988626858e+02  1.5196355642833345e+02  1.4629439815198148e+02  1.4047264780729159e+02  1.3496854031652006e+02  1.2982405027058303e+02  1.2467371419953389e+02  1.1977036159760991e+02  1.1482604934120739e+02  1.0965812986140232e+02  1.0474751039491349e+02  9.9587338264315690e+01  9.5069191522102074e+01  9.0519912310426776e+01  8.6064048654207525e+01  8.1709731831883076e+01  7.7925873631615843e+01  7.4244472220264086e+01  7.0807149995031935e+01  6.7197541098692426e+01  6.4224169778271062e+01  6.0884024742574347e+01  5.7644564900846540e+01  5.4734384167984210e+01  5.1993172365866968e+01  4.9612536929546387e+01  4.7063970112506787e+01  4.4789813721777215e+01  4.2578265170246013e+01  4.0497600097750158e+01  3.8529789153032013e+01  3.6961035686532902e+01  3.5033107787391678e+01  3.3464738222253217e+01  3.2203859590015632e+01  3.0583438394514303e+01  2.9496945020528788e+01  2.8349158683157459e+01  2.7194632883991900e+01  2.6353901998331370e+01  2.5661625225464586e+01  2.5039846192584022e+01  2.4181737986410113e+01  2.3873605786579155e+01  2.3224183587300789e+01  2.2757795204733188e+01  2.2666094163465520e+01  2.2075633930422928e+01  2.2180493941551354e+01  2.1830298089203932e+01  2.2266976576658138e+01  2.2031958780541387e+01  2.2143642544092820e+01  2.2124651258635726e+01  2.2572744696029872e+01  2.2971687908732026e+01  2.3206975286931456e+01  2.3334569716831460e+01  2.3928738339601814e+01  2.4334895153339080e+01  2.4718821271233928e+01  2.5166766181247791e+01  2.5815023698605032e+01  2.6155111316884550e+01  2.6737085814002235e+01  2.7427154339724485e+01  2.8074378508682408e+01  2.8460289223507072e+01  2.9494431522701671e+01  3.0118369236821671e+01  3.0938229489967597e+01  3.1328997544687834e+01  3.2130971910202241e+01  1.0526787956077216e+01  1.3919121392377139e+01  6.9037005972041863e+00  1.7682081871221346e+01  1.5365551884805282e+00  2.1471154148740432e+01  -3.7501498565451339e+00  2.7547588805686551e+01  -8.5493585925374589e+00  3.4322309602678558e+01  -1.5781853627253914e+01  4.1530638238116566e+01  -2.0700508236532070e+01  5.0170284215252892e+01  -2.7991932991786140e+01  6.1523344114526594e+01  -3.6113744746037149e+01  7.8001701141907645e+01  1.1244445835203182e+01  -4.3590105842648711e+01  5.7153345911490012e+00  1.6771352965501585e+01  -7.2837471916406146e-02  1.1530780533862822e+01  1.3236350721803692e+01  1.3009448625817615e+01  1.2448001383281749e+01  9.1843797453387992e+01  -6.2028140482266503e+00  2.2673940198768275e+01  1.3382623022135956e+01  -5.3557216131160622e+01  1.3001955555138965e+01  2.7851661605992383e+01  -1.2338035066837012e+01  1.7523564857652300e+01  1.4205763547724375e+01  8.9601921045201021e+00  1.0685384459939161e+02  1.4466617810134464e+01  1.4906078482022587e+00  1.3827371308585194e+01  3.3913503425599259e+01  -1.8957456879231472e+01  2.0315218004914019e+01  2.4771897422860530e+01  8.8701787562050551e+00  -6.6969520258261369e+01  -4.9929850999716994e+00  2.6876804962863364e+01  -1.0969375057619841e+01  1.2796168655100145e+02  -2.5968693543999969e+01  4.0794173761023053e+01  1.5498293018346562e+01  1.3845009616698828e+01  -7.9743031654226357e+01  3.3114528369701752e+01  -1.7790244815350988e+01  1.4887274352082846e+01  3.2875245641239289e+01  1.1972525950276065e+01  1.2519467908180912e+01  4.4318798612973760e+00  1.5220967952950165e+01  2.0029798465806977e+01  4.7637866441186617e+01  -3.3206507511445139e+01  1.4823294521203078e+02  3.8460207145565590e+01  -9.3876363834724685e+01  1.8444825385346110e+01  4.6851375900438001e+01  -4.1184072733580699e+00  -2.3926901673518127e+01  1.0849123570531439e+01  1.6277819311524448e+02  1.5623367927944201e+01  8.4182711111683393e+00  4.5081618748811906e+01  5.5058833119425472e+01  -4.3899719908157302e+01  3.7927435974660675e+01  -3.0890548037791998e+01  1.2373522917923971e+01  -1.0866070630398499e+02  -9.8880617494488554e+00  6.0248558852976274e+01  2.0458414338333906e+01  6.2234528377996106e+01  2.6941813328286727e+01  -1.0071056070097958e-01  3.9365389361818988e+00  5.5581784758793376e+00  1.7916444145167318e+02  5.1581014931433586e+01  -3.7934544949732974e+01  -5.6112066857528680e+00  -5.2420519776512194e+01  2.5199113288245275e+01  -1.2443510983172749e+02  1.1019917070287224e+01  1.7069353815410292e+01  6.8551543209142096e+00  7.4545022731181746e+01  -3.7774873384633740e+00  3.3492580771960569e+00  -1.1644991063754948e+00  -2.6882790379283836e+01  2.3797788225101485e+01  3.7036939439799433e+01  1.0343645774345061e+01  1.3364551849484613e+01  1.9533737121653616e+02  5.1073523801851259e+01  2.0260395429235103e+01  1.1278545816376253e+01  5.9478508167802381e+01  2.6525150556314177e+01  -1.7181084220827238e+01  8.8902859877581889e+01  7.0542722885141544e+01  1.0215450792268735e+01  2.0611334987931063e+01  1.9794337972099989e+01  -5.8251730581599679e+00  -1.4560821114354695e+02  8.3224732299000053e+00  4.2161531689030705e+00  2.9147671961539210e+01  1.5776082664145383e+01  7.9731328330751182e+01  2.5264790852992345e+00  -4.7040738627769016e+01  1.6685165440686241e+01  -3.8511451602423541e+01  1.7449047591121676e+01  1.9324931698140514e+01  2.0694565853723617e+02  -6.1705288134316284e+01  -1.0663148007911738e+01  -8.1637638463523299e+00  2.2807632463734155e+01  3.2742058595647144e+01  1.4163041556053990e+01  1.3610262860177651e+01  1.3047265559750468e+01  7.5103221809155452e+00  1.5296748798751935e+01  -1.8028811565541513e+01  2.8808414403249213e+01  3.0338016979880788e+01  2.4465628010324667e+00  -1.1427907689279042e+01  2.2833294123853470e+01  1.7444121200849576e+01  2.2070377418125720e+01  -8.4441626497391695e+00  -1.7413084030794117e+01  -1.4650649173332123e+01  -2.4580094520073028e+00  6.7107192803018634e+01  -1.0024878454055484e+01  6.5099715120622108e+01  8.1016085886593334e+00  1.3267166538280630e+01  1.3920696937805044e+01  1.4741991504244421e+01  -6.1204318344362347e+00  1.0546950377502000e+01  7.9956949359215903e+00  3.0362924887346178e+01  4.4983108605459336e+01  -7.1374656148252029e+01  -1.6035945560553404e+02  1.0415829545020303e+02  3.6541417376369303e+01  2.3930260301281852e+01  8.6352172416947983e+00  1.9561943268241297e+01  -2.1526375571315505e+01  -2.4352425338260751e+01  -5.5588556251721450e+01  1.7185886777351339e+01  1.5905681802550861e+01  -9.1326176112347781e+00  1.8766003460608822e+01  2.1711941756582444e+01  2.3041948845935856e+01  -5.3547861961682784e+01  2.2762076018169091e+02  9.0799523407612483e+01  3.8591244662699651e+01  2.4363833363218749e+01  1.2344671720546177e+01  3.2454071081996418e+01  5.0631613745283275e+00  5.9682986796619035e+00  9.7988995989218246e+00  7.3920483114849077e+01  7.6658508856888519e+00  1.6114977862645738e+01  2.0913341290888042e+01  -1.7461864444788594e+02  -2.8151174443749102e+01  1.8697478824478388e+01  -1.1720452625969369e+00  8.3982251610596421e+00  5.5292867311765050e+01  -1.6101182177435014e+01  1.2712270852796111e+02  1.8185040341930168e+01  4.2047838638612227e+01  4.5018932669812656e+01  1.4667491600235444e+01  -6.6307878265348279e+01  -3.0344328025018939e+01  2.2527646139555035e+01  3.0626412859939361e+01  2.4381306461470629e+02  2.4854047676018311e+01  -2.7597367994261234e+01  -3.1143201881928711e+01  1.0887071264246669e+02  1.6582816707701664e+01  9.9205861553107066e+00  2.1895459352186169e+01  2.1086836849394540e+01  1.6201953887907635e+01  -7.1760175183446506e+01  -7.9841449403182835e+01  2.3050816667685055e+01  1.6294750650263495e+01  5.1801082032062649e-02  -4.2010525840629178e+01  3.7928342866987080e+01  -8.9981713291647978e+01  -1.8601445684218021e+01  8.3454097623916837e+01  -1.8809272222761101e+02  1.4316686662824745e+02  3.9507195654676927e+01  1.5159629428106411e+01  2.5991457699472676e+01  2.0138757004742121e+01  2.5028599874152732e+01  1.1341293551511606e+02  1.9759926922298703e+01  -8.7650557841113226e+01  3.9244879340793176e+01  1.4657763934707420e+01  6.8985884235427463e+01  2.5992104603680355e+02  -2.2776593916836507e+01  -6.0245170798227523e+00  -2.4057209998668021e+01  2.6792118225017955e+01  4.6885010264984381e+01  -2.7200998421285359e+01  -6.2225720054243546e+01  -3.7741737370673960e+01  -3.4624664160749759e+01  5.0868626622010844e+01  4.8436194604274178e+01  -1.9790827066892294e+02  -1.7640517289995969e+00  5.2636331175332236e+00  -4.2889856603122475e+01  -3.2104850440101735e+01  3.2419067837655668e+01  2.8452555058119010e+01  -2.3416317479700806e+00  1.6013180184572429e+00  2.3040016431622060e+01  8.1364564229457073e+01  1.1496586002082745e+01  8.5818553275400021e+01  -1.4169809854851298e+01  9.6537139796724915e+01  -1.0146264957925005e+02  1.2043600709834462e+02  3.0293206155607621e+01  2.4157762234746418e+01  -4.5728939825286865e+01  3.9396693872978197e+01  -1.3176178233558401e+01  3.2382131774307460e+01  2.7249657449056156e+02  9.4711250249976672e+01  -8.4967080649069047e+01  -4.9017582803678845e+00  -3.7442655119749354e+01  4.3298998671323574e+01  1.8531746797382445e+00  1.2030468338981686e+01  3.5666517113359120e+01  1.0398426514876290e+02  5.4697709721371957e+01  1.4025562026913208e+01  2.4481226861386592e+01  -4.6738515317809117e+01  3.1389352930227432e+01  8.4102617613768906e+00  1.4887293984584552e+01  1.6167098382892434e+02  1.8850916853674