<?xml version="1.0"?>
<VTKFile type="UnstructuredGrid"  version="0.1"  >
<UnstructuredGrid>
<Piece  NumberOfPoints="3914" NumberOfCells="6504">
<Points>
<DataArray  type="Float64"  NumberOfComponents="3"  format="ascii">1.25 0 0  1.249623523370255 0.03067653565364036 0  1.248494320256466 0.06133459290927252 0  1.246613070848363 0.09195570449958429 0  1.243980908340246 0.1225214254119508 0  1.240599418248387 0.1530133439990203 0  1.236470637455976 0.1834130930692022 0  1.231597052986177 0.2137023609503765 0  1.225981600504038 0.2438629025201603 0  1.219627662548161 0.2738765501960873 0  1.21253906649318 0.3037252248790798 0  1.2047200822443 0.333390946843623 0  1.196175419665261 0.3628558465680779 0  1.186910225741296 0.3921021754986144 0  1.176930081478776 0.4211123167402751 0  1.166240998543424 0.4498687956687352 0  1.154849415639108 0.4783542904563622 0  1.142762194629413 0.5065516425062373 0  1.129986616404304 0.5344438667878526 0  1.116530376494394 0.5620141620682582 0  1.102401580435444 0.5892459210324971 0  1.087608738885889 0.61612274028723 0  1.07216076250034 0.642628430241527 0  1.056066956562134 0.6687470248588714 0  1.039337015378182 0.6944627912745027 0  1.02198101643948 0.7197602392723067 0  1.004009414350806 0.7446241306155417 0  0.9854330345332579 0.7690394882257835 0  0.9662630667034212 0.7929916052045569 0  0.9465110581331058 0.8164660536922209 0  0.9261889066936989 0.8394486935587729 0  0.9053088536893338 0.8619256809213336 0  0.8838834764831844 0.8838834764831843 0  0.8619256809213337 0.9053088536893337 0  0.8394486935587729 0.9261889066936989 0  0.8164660536922209 0.9465110581331055 0  0.7929916052045569 0.9662630667034212 0  0.7690394882257835 0.9854330345332578 0  0.7446241306155419 1.004009414350806 0  0.7197602392723067 1.02198101643948 0  0.6944627912745028 1.039337015378182 0  0.6687470248588716 1.056066956562134 0  0.642628430241527 1.07216076250034 0  0.6161227402872301 1.087608738885889 0  0.5892459210324973 1.102401580435444 0  0.5620141620682583 1.116530376494394 0  0.5344438667878527 1.129986616404304 0  0.5065516425062373 1.142762194629413 0  0.4783542904563623 1.154849415639108 0  0.4498687956687353 1.166240998543424 0  0.4211123167402751 1.176930081478776 0  0.3921021754986145 1.186910225741296 0  0.3628558465680779 1.196175419665261 0  0.333390946843623 1.2047200822443 0  0.30372522487908 1.21253906649318 0  0.2738765501960872 1.219627662548161 0  0.2438629025201604 1.225981600504038 0  0.2137023609503767 1.231597052986177 0  0.1834130930692022 1.236470637455976 0  0.1530133439990203 1.240599418248387 0  0.122521425411951 1.243980908340246 0  0.09195570449958432 1.246613070848363 0  0.06133459290927266 1.248494320256466 0  0.03067653565364033 1.249623523370255 0  7.654042494670958e-17 1.25 0  -0.03067653565364018 1.249623523370255 0  -0.06133459290927251 1.248494320256466 0  -0.09195570449958416 1.246613070848363 0  -0.1225214254119508 1.243980908340246 0  -0.1530133439990202 1.240599418248387 0  -0.1834130930692021 1.236470637455976 0  -0.2137023609503766 1.231597052986177 0  -0.2438629025201602 1.225981600504038 0  -0.2738765501960871 1.219627662548161 0  -0.3037252248790798 1.21253906649318 0  -0.3333909468436229 1.2047200822443 0  -0.3628558465680777 1.196175419665261 0  -0.3921021754986143 1.186910225741296 0  -0.4211123167402749 1.176930081478776 0  -0.4498687956687352 1.166240998543424 0  -0.4783542904563621 1.154849415639108 0  -0.5065516425062372 1.142762194629413 0  -0.5344438667878524 1.129986616404304 0  -0.5620141620682584 1.116530376494394 0  -0.5892459210324972 1.102401580435444 0  -0.61612274028723 1.087608738885889 0  -0.642628430241527 1.07216076250034 0  -0.6687470248588713 1.056066956562134 0  -0.6944627912745025 1.039337015378182 0  -0.7197602392723067 1.02198101643948 0  -0.7446241306155417 1.004009414350806 0  -0.7690394882257834 0.9854330345332579 0  -0.7929916052045567 0.9662630667034213 0  -0.8164660536922207 0.9465110581331059 0  -0.8394486935587731 0.9261889066936988 0  -0.8619256809213337 0.9053088536893337 0  -0.8838834764831843 0.8838834764831844 0  -0.9053088536893334 0.8619256809213338 0  -0.9261889066936986 0.8394486935587732 0  -0.9465110581331058 0.8164660536922208 0  -0.9662630667034212 0.7929916052045569 0  -0.9854330345332578 0.7690394882257836 0  -1.004009414350806 0.7446241306155419 0  -1.02198101643948 0.7197602392723068 0  -1.039337015378182 0.6944627912745027 0  -1.056066956562134 0.6687470248588714 0  -1.07216076250034 0.6426284302415273 0  -1.087608738885889 0.6161227402872302 0  -1.102401580435444 0.5892459210324973 0  -1.116530376494394 0.5620141620682586 0  -1.129986616404304 0.5344438667878525 0  -1.142762194629413 0.5065516425062374 0  -1.154849415639108 0.4783542904563624 0  -1.166240998543424 0.4498687956687354 0  -1.176930081478776 0.4211123167402754 0  -1.186910225741296 0.3921021754986143 0  -1.196175419665261 0.362855846568078 0  -1.2047200822443 0.3333909468436231 0  -1.21253906649318 0.3037252248790801 0  -1.219627662548161 0.2738765501960876 0  -1.225981600504038 0.2438629025201608 0  -1.231597052986177 0.2137023609503765 0  -1.236470637455976 0.1834130930692023 0  -1.240599418248387 0.1530133439990204 0  -1.243980908340246 0.122521425411951 0  -1.246613070848363 0.09195570449958466 0  -1.248494320256466 0.06133459290927246 0  -1.249623523370255 0.03067653565364041 0  -1.25 1.530808498934192e-16 0  -1.249623523370255 -0.0306765356536401 0  -1.248494320256466 -0.06133459290927215 0  -1.246613070848363 -0.09195570449958437 0  -1.243980908340246 -0.1225214254119507 0  -1.240599418248387 -0.1530133439990201 0  -1.236470637455976 -0.183413093069202 0  -1.231597052986177 -0.2137023609503762 0  -1.225981600504038 -0.2438629025201605 0  -1.219627662548161 -0.2738765501960873 0  -1.21253906649318 -0.3037252248790798 0  -1.2047200822443 -0.3333909468436228 0  -1.196175419665261 -0.3628558465680776 0  -1.186910225741296 -0.392102175498614 0  -1.176930081478776 -0.4211123167402752 0  -1.166240998543424 -0.4498687956687352 0  -1.154849415639108 -0.4783542904563621 0  -1.142762194629413 -0.5065516425062371 0  -1.129986616404304 -0.5344438667878523 0  -1.116530376494394 -0.5620141620682583 0  -1.102401580435444 -0.5892459210324971 0  -1.087608738885889 -0.6161227402872299 0  -1.07216076250034 -0.6426284302415269 0  -1.056066956562134 -0.6687470248588712 0  -1.039337015378182 -0.6944627912745025 0  -1.02198101643948 -0.7197602392723067 0  -1.004009414350806 -0.7446241306155416 0  -0.9854330345332579 -0.7690394882257834 0  -0.9662630667034213 -0.7929916052045566 0  -0.946511058133106 -0.8164660536922207 0  -0.9261889066936989 -0.8394486935587731 0  -0.9053088536893338 -0.8619256809213336 0  -0.8838834764831847 -0.8838834764831843 0  -0.8619256809213338 -0.9053088536893334 0  -0.8394486935587733 -0.9261889066936986 0  -0.8164660536922214 -0.9465110581331053 0  -0.7929916052045574 -0.9662630667034209 0  -0.7690394882257841 -0.9854330345332574 0  -0.7446241306155414 -1.004009414350806 0  -0.7197602392723066 -1.02198101643948 0  -0.6944627912745027 -1.039337015378182 0  -0.6687470248588716 -1.056066956562134 0  -0.6426284302415273 -1.07216076250034 0  -0.6161227402872302 -1.087608738885889 0  -0.5892459210324973 -1.102401580435444 0  -0.5620141620682586 -1.116530376494394 0  -0.5344438667878531 -1.129986616404304 0  -0.506551642506238 -1.142762194629413 0  -0.4783542904563629 -1.154849415639108 0  -0.4498687956687349 -1.166240998543424 0  -0.4211123167402749 -1.176930081478776 0  -0.3921021754986143 -1.186910225741296 0  -0.3628558465680781 -1.196175419665261 0  -0.3333909468436231 -1.2047200822443 0  -0.3037252248790802 -1.21253906649318 0  -0.2738765501960876 -1.219627662548161 0  -0.2438629025201608 -1.225981600504038 0  -0.2137023609503771 -1.231597052986176 0  -0.1834130930692029 -1.236470637455976 0  -0.1530133439990199 -1.240599418248387 0  -0.1225214254119506 -1.243980908340246 0  -0.09195570449958419 -1.246613070848363 0  -0.06133459290927254 -1.248494320256466 0  -0.03067653565364049 -1.249623523370255 0  -2.296212748401287e-16 -1.25 0  0.03067653565364003 -1.249623523370255 0  0.06133459290927207 -1.248494320256466 0  0.09195570449958373 -1.246613070848363 0  0.1225214254119501 -1.243980908340246 0  0.1530133439990195 -1.240599418248387 0  0.1834130930692024 -1.236470637455976 0  0.2137023609503766 -1.231597052986177 0  0.2438629025201604 -1.225981600504038 0  0.2738765501960872 -1.219627662548161 0  0.3037252248790797 -1.21253906649318 0  0.3333909468436227 -1.2047200822443 0  0.3628558465680776 -1.196175419665261 0  0.3921021754986139 -1.186910225741296 0  0.4211123167402745 -1.176930081478776 0  0.4498687956687345 -1.166240998543424 0  0.4783542904563625 -1.154849415639108 0  0.5065516425062375 -1.142762194629413 0  0.5344438667878527 -1.129986616404304 0  0.5620141620682583 -1.116530376494394 0  0.589245921032497 -1.102401580435444 0  0.6161227402872298 -1.087608738885889 0  0.6426284302415269 -1.07216076250034 0  0.6687470248588712 -1.056066956562134 0  0.6944627912745023 -1.039337015378182 0  0.7197602392723061 -1.02198101643948 0  0.7446241306155411 -1.004009414350806 0  0.7690394882257838 -0.9854330345332576 0  0.792991605204557 -0.9662630667034211 0  0.8164660536922209 -0.9465110581331058 0  0.8394486935587729 -0.9261889066936989 0  0.8619256809213336 -0.9053088536893338 0  0.8838834764831842 -0.8838834764831847 0  0.9053088536893333 -0.8619256809213339 0  0.9261889066936986 -0.8394486935587733 0  0.9465110581331053 -0.8164660536922214 0  0.9662630667034209 -0.7929916052045574 0  0.9854330345332574 -0.7690394882257843 0  1.004009414350806 -0.7446241306155416 0  1.02198101643948 -0.7197602392723066 0  1.039337015378182 -0.6944627912745027 0  1.056066956562134 -0.6687470248588716 0  1.07216076250034 -0.6426284302415274 0  1.087608738885889 -0.6161227402872304 0  1.102401580435443 -0.5892459210324974 0  1.116530376494394 -0.5620141620682587 0  1.129986616404304 -0.5344438667878532 0  1.142762194629413 -0.50655164250623
[...]
<PointData  Scalars="f_4662635"> 
<DataArray  type="Float64"  Name="f_4662635"  format="ascii">3.7984780094260056e+00  3.7917281323779415e+00  4.1202421251173966e+00  4.1723844378768611e+00  4.2954046501249898e+00  4.3483419962316869e+00  4.5538049138865331e+00  4.6558077122597590e+00  4.6721869973062500e+00  4.6270207078169765e+00  4.9622547401569861e+00  4.9091320662569293e+00  4.9598853109047862e+00  5.2770874922565758e+00  5.4393967242378247e+00  5.2865086049760199e+00  5.3231390709350466e+00  5.5215354695403871e+00  5.7454035783171511e+00  5.7392824257330712e+00  5.7505578650014177e+00  5.4646641942979386e+00  5.7752865090624450e+00  5.5530071059669872e+00  5.7505855739616472e+00  5.5986771841504019e+00  5.6964962841379956e+00  6.0220224090020755e+00  6.1262159342028406e+00  5.8985202113122055e+00  6.0137753122582023e+00  6.0223491490543415e+00  6.0270190135115858e+00  5.6720168180716888e+00  5.5614364933070641e+00  5.6079290327341385e+00  5.1983016227126360e+00  5.5006246842120383e+00  5.1531470264103092e+00  5.0296325915051607e+00  5.1872225035268915e+00  5.1518763987763361e+00  4.8643886182684817e+00  4.8221861178257397e+00  4.9699216804551520e+00  4.7502443113498458e+00  4.6385942674717811e+00  4.6976979981386338e+00  4.5962376301478987e+00  4.2751953084051095e+00  4.0267951493246326e+00  4.0223811449438731e+00  3.9365820094144817e+00  3.9563428727188716e+00  3.8562509260742281e+00  3.5757304090350699e+00  3.6509544895323289e+00  3.4554559002561462e+00  3.3648256525862821e+00  3.2977034280950779e+00  3.0100609808659544e+00  2.7363981609023562e+00  2.6973653432722391e+00  2.4644159372499699e+00  2.3837717232822850e+00  2.3993852412159362e+00  2.2779624521339898e+00  2.1205008460142940e+00  2.5466338415909666e+00  2.0779151402421179e+00  2.0899061765681721e+00  1.8532069192999439e+00  2.1625004350382242e+00  2.0422259508788554e+00  1.6411328098471616e+00  1.6266400220663333e+00  1.6039147026739966e+00  1.9260342642856534e+00  2.1795378203950133e-01  -3.6109408586763569e-01  1.3082153132997105e+00  -1.1220943617555290e+00  1.7015920287616728e+00  7.4538254776391755e-01  7.4888662491585434e-01  -2.4357013255756965e+00  1.1903199689600990e+00  -2.2307836500240699e+00  -9.8016655862162372e-01  -2.2060629081267944e+00  8.8512858508573922e-01  4.4423256817952144e+00  7.7370203000444153e+00  1.0154954930807047e+01  1.5727399727849134e+01  1.6516600587875498e+01  1.8305277570996466e+01  1.9854855137831201e+01  2.3661945118046003e+01  2.7753980167804901e+01  3.1420290367994333e+01  3.4287694998642081e+01  3.7440239975015906e+01  4.0686486513908676e+01  4.4729065883495750e+01  4.8146077318510720e+01  5.2031197801207064e+01  5.6419320846704082e+01  6.0887094097052774e+01  6.5086701890338574e+01  7.1013021930123571e+01  7.4506383684107249e+01  7.9722861984669095e+01  8.3724840361163047e+01  8.7572808317759893e+01  9.1815896485998749e+01  9.5505369615611698e+01  9.9215413613880898e+01  1.0187342937850352e+02  1.0373999683201552e+02  1.0538957484872398e+02  1.0802116076918649e+02  1.0965552327964916e+02  1.1073665221639627e+02  1.1042314206325621e+02  1.0770626096192721e+02  1.0659448504782605e+02  1.0411290124546012e+02  1.0077352129273639e+02  9.6202050136054552e+01  9.0914678711912558e+01  8.3685315498681504e+01  7.8306276417249705e+01  7.2079978684112120e+01  6.5348769091003874e+01  5.8604124413741594e+01  5.1221905666443661e+01  4.5224154157056113e+01  3.9278442866220587e+01  3.3536586274017360e+01  2.8180367186711695e+01  2.2923906637846713e+01  1.8963012216675430e+01  1.6325618661153598e+01  1.1636403523513332e+01  9.2816420922544740e+00  5.3831763631584471e+00  3.9612555008648789e+00  1.9057716406064444e+00  4.7381181457652222e-01  -7.5131568123179238e-01  -1.3728929522100308e+00  -1.2036551353238996e+00  -1.3621494722312162e+00  -1.2163789678911963e+00  -8.2431174429621745e-01  -6.6405416834031250e-01  -8.7006796801181918e-01  9.4508290368513981e-01  1.5155018448795590e+00  1.9861459824441376e+00  2.4943512801283303e+00  2.7362177552513813e+00  3.1386139404819802e+00  3.0061689601433681e+00  2.0269705823969333e+00  2.6987813275423993e+00  3.3447213425904221e+00  3.7051767598070575e+00  4.5504615778556436e+00  4.6280260437291298e+00  4.7187885221735257e+00  5.0571357446690852e+00  5.2928186321353090e+00  5.2100066352478107e+00  5.4590228118369408e+00  5.5318995522455960e+00  5.5224502545686081e+00  5.6061539900124906e+00  5.5851483871687364e+00  5.6623045077053771e+00  5.6588204243970726e+00  5.6169971672969847e+00  5.5359598649997395e+00  5.2664114787878056e+00  5.1687099270305268e+00  5.0797349653802994e+00  4.8637590967638165e+00  4.6445563356301438e+00  4.6255425670086696e+00  4.2497719143008732e+00  4.2984453123311566e+00  4.0856853203615273e+00  3.9221846088981169e+00  3.7740010240716080e+00  3.6452286224530930e+00  3.4544561727845489e+00  3.3213422824109902e+00  3.1461783371806917e+00  2.9749685346123989e+00  2.8784940465103390e+00  2.7253570140595840e+00  2.6256287198988377e+00  2.4965578508750670e+00  2.3877294598935634e+00  2.2849786995841526e+00  2.1188015907908815e+00  2.0303209745739306e+00  1.8757546724801559e+00  1.8144623820033379e+00  1.7527430198111489e+00  1.6786745695906702e+00  1.5629498715325325e+00  1.5002933360133712e+00  1.4052112480597871e+00  1.4184127744800159e+00  1.2658828677588179e+00  1.3017468463733155e+00  1.2757656634846015e+00  1.1651319390529384e+00  1.2381281810658167e+00  1.0979283991720510e+00  1.0048519562840021e+00  1.0732202986863462e+00  1.0157559654431771e+00  1.0957418999904731e+00  1.0465897650449822e+00  1.1368934568217244e+00  1.2812451036079855e+00  1.1790524425917086e+00  1.2081831049703293e+00  1.3288113448610230e+00  1.4117436986964933e+00  1.3547836638624637e+00  1.5529458487511569e+00  1.5004014782764314e+00  1.8154279106522704e+00  1.5609015544783240e+00  1.8861469540344720e+00  1.8097247861152530e+00  2.0773823736437569e+00  2.0420692127078590e+00  2.1487814185960570e+00  2.3216224318373699e+00  2.3536752052667587e+00  2.4735336212885914e+00  2.4626332328075220e+00  2.7150656540062550e+00  2.6968030918605708e+00  3.0436828427466134e+00  3.1936440639624060e+00  3.0301716758539929e+00  3.4544035381449603e+00  3.4356090447973751e+00  3.6281564708096821e+00  3.6869493781105551e+00  1.7609172639729707e+01  1.7989005259671373e+01  1.8338676348139263e+01  1.9483527513600826e+01  2.0004374123362421e+01  2.0126936330107529e+01  2.0916301534684752e+01  2.1477467369670897e+01  2.1822326151090554e+01  2.2553392736511807e+01  2.3003546843631931e+01  2.3653076297833703e+01  2.4047471292939413e+01  2.4287198085480625e+01  2.5052082231870124e+01  2.5365134536254370e+01  2.5810043733908234e+01  2.6643256397418011e+01  2.7120028570599857e+01  2.7447272028822837e+01  2.7440346779412323e+01  2.8293031131639072e+01  2.8624942771980916e+01  2.8719260939856955e+01  2.8912786108544704e+01  2.8884273201578115e+01  2.9319565882415194e+01  2.9398516101852930e+01  2.9792929868112523e+01  2.9888344841166880e+01  3.0070930516182280e+01  2.9980860882001771e+01  3.0103214723743644e+01  3.0320286765575254e+01  3.0242952121974767e+01  3.0138020743468786e+01  3.0173199995957614e+01  3.0215215709963324e+01  3.0162628623798916e+01  2.9963314826492308e+01  2.9852107955788835e+01  2.9563282021331773e+01  2.9292058352740842e+01  2.9144339065872067e+01  2.8980703141436784e+01  2.8725967912266125e+01  2.8366567904626709e+01  2.8051648561991431e+01  2.7616374377317353e+01  2.7132891614628083e+01  2.6678818214756230e+01  2.6396926825807345e+01  2.6061746518473512e+01  2.5690981845284384e+01  2.5388455387464543e+01  2.5033532582874464e+01  2.4523432721781596e+01  2.3968542222275630e+01  2.3401064134884631e+01  2.2750668991686453e+01  2.2044171900016071e+01  2.1296127967391463e+01  2.0591282526732009e+01  1.9780058027833530e+01  1.8946795706127244e+01  1.8083128793155510e+01  1.7286187265291396e+01  1.6285094276312684e+01  1.5271052136751903e+01  1.4549415472848215e+01  1.3939435383717944e+01  1.3294730696626999e+01  1.2619030084288735e+01  1.1990153270105919e+01  1.1407220345113714e+01  1.0754150356468529e+01  1.0138416700061452e+01  9.5793436827316718e+00  9.1726221791481617e+00  8.6782316914222282e+00  8.2623538962691701e+00  7.8840200835851357e+00  7.5662951974421846e+00  7.2594996496605839e+00  7.0372909113588129e+00  6.8129383758150182e+00  6.7030272860164830e+00  6.6772218273070223e+00  6.4672923011199108e+00  6.8221657999019731e+00  6.7599642433013161e+00  6.6493211724373911e+00  6.8813039585690658e+00  6.6559569591270922e+00  6.7223503943877514e+00  6.9757727431352619e+00  7.1399326927306621e+00  7.2150680991154239e+00  7.0912384664174137e+00  7.7748698339540878e+00  7.4027620645131949e+00  8.0705765214787863e+00  8.0194922508409299e+00  7.7412487257859919e+00  8.2976826632523721e+00  8.0872076191213136e+00  7.7883380321328328e+00  7.4619757098309751e+00  7.2391623185050253e+00  6.4506294796829717e+00  6.1603799198903326e+00  5.0561835908236406e+00  4.5740230755527049e+00  5.4612001635812817e+00  5.5696510530495669e+00  5.4756132286411034e+00  5.1375232567577704e+00  4.7979280610405768e+00  4.6101203477601675e+00  3.0609030219874249e+00  -2.3738608189056887e+00  3.4017896473877118e+00  3.7226970038266067e+00  4.0285372773033545e+00  4.9580871636680612e+00  4.5497567354025898e+00  -4.0056739593724213e+00  6.6791723472936315e+00  9.9933812266877844e+00  1.2825762536640221e+01  1.6435146163091694e+01  2.0686015098738100e+01  1.7581365811642204e+01  2.5453170948305221e+01  3.1425501676525823e+01  3.6192723483028978e+01  4.1317682770830110e+01  4.6285323306226545e+01  4.7076097628090139e+01  5.2602198940150103e+01  5.7253786347560826e+01  6.2409219238822246e+01  6.5535047447647187e+01  6.8390367927072049e+01  7.0939516198873207e+01  7.2842921130744401e+01  7.3682170831374506e+01  7.4245477038461914e+01  7.5288796182943059e+01  7.5883460333172906e+01  7.6082559631607964e+01  7.5808953601970487e+01  7.5492221956666214e+01  7.4805092921574058e+01  7.3643193250863277e+01  7.2944969250117154e+01  7.1959643857850793e+01  7.0670504114982364e+01  6.9299792110722379e+01  6.7605161726309305e+01  6.6319498895293137e+01  6.4906058577560373e+01  6.3800296829568168e+01  6.2708875714308931e+01  6.1408565610732829e+01  5.9784085273977674e+01  5.8740613489393560e+01  5.7434514822057061e+01  5.5702563430139982e+01  5.4497877606393729e+01  5.3483627948411872e+01  5.2503457946468593e+01  5.0676330637222883e+01  4.8545490204789573e+01  4.6909238191859728e+01  4.5533209298045229e+01  4.4288179999497970e+01  4.2778713111487299e+01  4.1010444536143886e+01  3.9568460850697399e+01  3.8468447771984437e+01  3.6772100601992555e+01  3.5296344853596771e+01  3.3875657408901105e+01  3.2456032575526315e+01  3.0904526558763155e+01  2.9662763750886832e+01  2.8317307558312471e+01  2.7067731711939583e+01  2.5897995455271587e+01  2.4990124394749198e+01  2.3683887037734703e+01  2.2326018040460287e+01  2.1110285254644783e+01  1.9722924044591466e+01  1.8530614777449735e+01  1.7486200334723421e+01  1.6319456971225069e+01  1.5157748245925546e+01  1.4114635069808843e+01  1.3215015546945047e+01  1.2382869382388499e+01  1.1559609234206333e+01  1.0825421937249171e+01  1.0187273736139767e+01  9.4428552213057522e+00  8.5975069543725784e+00  7.9575602040740820e+00  7.4511165433569060e+00  6.9275310675963047e+00  6.5716848463957396e+00  6.0874209190514463e+00  5.7257353440100189e+00  5.3766415876807727e+00  5.0604293727036449e+00  4.8119245236098624e+00  4.5650932759235747e+00  4.4026262141528569e+00  4.1402184422101360e+00  4.1856968685986198e+00  4.1714953639837109e+00  4.0625325111285955e+00  4.0028467596320523e+00  4.0988318604533420e+00  4.3638594118453291e+00  4.4399966557430046e+00  4.5769210648050755e+00  4.5351089452576892e+00  4.7248245888291427e+00  4.9865774514512200e+00  5.0160056926006780e+00  5.3869968657585785e+00  5.5335352312664190e+00  6.3269308710546142e+00  6.5139220431918874e+00  6.7992285429774828e+00  7.0099437391512174e+00  7.6113541633721287e+00  8.0668549686206319e+00  8.4335720631025524e+00  8.7691296759143817e+00  9.3392366289707915e+00  9.9201067869565716e+00  1.0346398034802785e+01  1.0796799677288840e+01  1.1387023395662837e+01  1.1855167929106260e+01  1.2336566178124114e+01  1.2886772707542018e+01  1.3467903743059720e+01  1.3825256438565269e+01  1.4701707357714197e+01  1.5227067843978968e+01  1.5875999838769442e+01  1.6352659955633758e+01  1.7008025110235611e+01  4.1712208183781039e+00  3.0529993579850503e+00  5.1536532378430762e+00  2.4614014864393186e+00  5.2160677115113385e+00  1.5214316438565967e+00  5.4291439645099722e+00  1.7977674780446364e+00  6.3340879837075406e+00  1.9930341457176932e+00  6.4646098017694031e+00  2.2864026033547362e+00  7.6803869833139853e+00  3.2842355518842083e+00  8.3698963047580524e+00  5.2549528323055750e+00  9.5103441886650959e+00  9.3233375798682463e+00  2.8637227043866487e+00  1.0662427903719038e+01  3.0908878920205547e+00  2.7704328897395762e+00  3.1929734814653532e+00  3.4774109718182964e+00  1.0007212585278090e+01  7.2113017589501736e+00  1.5555266805810097e+00  1.2145415548298573e+01  3.3821233498025949e+00  2.8099278054892300e+00  -6.0400418283600643e-01  1.0790132063527782e+01  1.2888162256012160e+01  2.4089649002433586e+00  3.4983095914354103e+00  -1.3230363546677224e+00  1.6669098315879864e+01  3.0702797007540226e+00  1.4944155457371780e+01  3.1259039991714728e+00  2.7376390027497437e+00  6.3940970512514355e+00  2.2145353840546056e+00  3.9092528132819608e+00  3.1771905821965718e+00  -7.8707468075227871e-01  1.7756258316741295e+01  9.3754991086709296e+00  2.6966210622521443e+00  3.1397394078430905e+00  2.8037002043825447e+00  2.0851663007759583e+01  4.2863076341698090e+00  2.2567290373866875e+00  1.2590603524033774e+01  8.9621293829685662e+00  8.3414157069937698e+00  2.9531305590504506e+00  2.8719328568397819e+00  1.8713501826813030e+01  4.8972620216530283e-01  2.5726058108327368e+00  3.9827064966003228e-01  1.9563229131779835e+01  -6.8939143269924741e-01  -9.1834055281291926e-01  2.2175639803470393e+00  4.4345194050861103e+00  2.4604105949064536e+01  2.7444163257905387e+00  7.3680460038895630e+00  1.7177902239624611e+01  3.1175664580685214e+00  1.9607216684316068e+01  3.2671062257829511e+00  2.0699312106024731e+01  2.5687407496727932e+01  2.4254316887823180e+00  4.7874202057557316e+00  2.5977263529025723e+00  2.0042999059352518e+00  4.3150846984650961e+00  1.5796502347112256e+00  3.6220229732082809e+00  3.4070403758520338e+00  6.6732844627265440e+00  2.1325387338952218e+01  6.1293184772854659e+00  2.3486351863969124e+00  1.7311630078252074e+00  1.0261150627150048e-03  5.5623264724372099e+00  2.1565628270916257e+01  5.5032402789688373e+00  2.8015473828967163e+01  2.5015521036021151e+00  4.1951875036140507e+00  5.7464694207886726e+00  4.4863722173615965e+00  1.7636644939714476e+00  5.7908725014411226e+00  3.3194090998632801e+00  3.5308684926617162e+00  3.0537296033522394e+00  9.3696391369681855e+00  2.4543805346161420e+00  2.8934518043303519e+00  2.5202795293634397e+00  1.8283674931361972e+01  3.8670696042227637e+00  2.0865764954043651e+00  4.6858762085495211e+00  3.4713967424675340e+00  3.1801205248354922e+01  4.6881981019458960e+00  2.6904023764191902e+00  4.0095799948730937e+00  2.5251381180508221e+00  3.7663331817712247e+00  2.0075920293068538e+01  1.2885845467868329e+01  1.9540457326396239e+00  3.2141014478460161e+00  1.3556158975942260e+01  3.8601717839703338e+00  2.1016588378127413e+01  2.8125009559946288e+00  3.8435401100003506e+00  3.2104615843280904e+00  1.4776802885371920e+00  6.3040618381030802e+00  2.3620261917663550e+00  4.9696316345324849e+00  4.5891357681107223e+00  7.6483644656278553e+00  1.7711922292765731e+01  9.3809222569229167e+00  1.1388071279690301e+01  3.3197036712483779e+01  4.6837515367378453e+00  2.3241789728654920e+00  2.2697325376510249e+00  1.7356717142329487e+01  3.7108627827068892e+00  4.0532055688641337e+00  2.7478783029159510e+00  3.0935022499187355e+00  7.4428865841198872e+00  2.7733736710408325e+00  6.8949978119988584e+00  2.0332325110466329e+00  3.8884881322247717e+00  3.5700028674510000e+00  6.1226577082371803e+00  2.2181357563747288e+00  2.4830199434544697e+00  1.5304926616124863e+01  4.3777243001461628e+00  2.3482792383004907e+00  2.2466194240697384e+00  4.1567201082932588e+00  2.3393231554852703e+00  7.9858519627388524e+00  7.7146763212693585e+00  1.4525758650967854e+01  2.4091265681787597e+00  1.6689796543090827e+00  1.4335546279700317e+00  4.1442638086698089e+00  6.4284829984994918e+00  9.0299907581135574e+00  6.0874443225025299e-01  2.5171939162243944e+00  5.0178489374282398e+00  7.7292306355090934e-01  1.6941879289351149e+01  3.5999157558673152e+00  1.4602666657622358e+00  1.1213135914833646e+01  2.2541992236548943e+01  2.4170496887882740e+00  2.4511237576030043e+00  4.9825566953894933e+00  1.0129037894223031e-01  2.9620354102564150e-01  5.4044618730965306e+00  2.5828113845065226e+00  2.1178339053959323e+01  2.0587082292271472e+01  1.5393709035873648e+01  3.8156063564172904e+01  3.3021783931320097e+00  3.5520354368703830e+00  1.9322005481671361e+01  3.1227617913101851e+00  1.3590370528530584e+00  3.0062173133120988e+00  1.4702687353074616e+01  7.2145111514391500e+00  1.3815902702052825e+00  3.0241941516930977e+00  2.4991526103413357e+00  -1.8315369732161446e-01  -4.4224388211560139e-01  6.7662810565043889e+00  -4.2643704444830460e-01  3.8366335424209606e+00  1.2573220508195531e+01  4.2647271547263372e+00  4.1782220709253268e+00  2.2418629082280905e+01  2.3346597694305643e+01  3.4237693095789430e+00  3.3743918252246590e+00  2.9943534653409158e+00  4.6866523526996531e+00  9.2727759123078233e+00  -3.6751751402152888e-01  1.8121987726565589e+00  4.1972370771915152e+01  -3.7994974116853458e-01  2.8447808646440853e+00  2.8005544044608688e+00  7.2129602700537703e+00  3.9636614719861019e+00  3.4871937787453997e+00  4.1972268303719868e+00  1.3109529273802382e+01  -1.8075025479574411e-01  1.2839281518147468e+01  5.0513683851154383e+00  -3.0727126487470398e-02  6.1270035404393521e+00  2.5751078595900769e+00  3.8948229742777114e+00  2.0459670834546078e+00  5.5571842704914358e+00  5.1801992120852072e+00  1.4597903183693650e+00  -1.5129903243619947e+00  2.5519965908073637e+01  2.0076156126233982e+00  1.1416960926308626e+00  4.2122684293182813e+00  1.0394453620076041e+01  1.7700688756948072e+01  1.9796242743637393e+01  2.0061430258797279e+00  1.0528664697982242e+01  1.4460887232880399e+00  2.4510623579404243e+01  7.3629840904947823e+00  4.6635188640262371e+01  4.6118621979310959e+00  2.2553401945069922e+00  5.3142061355854313e+00  2.5947507615697258e+00  1.3502963707798101e+00  5.9180567910845454e+00  1.4629991272290235e+01  3.3035439365911841e+00  3.1303991410170755e+00  3.0169207077022082e+00  3.1354357707761902e+00  -1.9767390351630032e+00  5.5473225656976046e+00  2.4257084991595026e+01  8.7574775809398240e+00  1.8269834768246529e+01  1.4308090152872823e+00  1.1150926215978927e+00  1.6912966395224249e+01  1.6764963261608617e+01  4.1009162339145515e+00  1.0903074387607623e+01  3.6710633375667636e+00  1.1119940864482370e+01  3.5823664141191331e+00  1.4771903673660070e+01  4.8679774289504465e+00  8.2104485661833557e+00  4.4917074271723747e+00  2.2386604667549097e+00  1.6558120507476193e+01  2.7608199770327406e+00  1.9458192596927280e+00  6.1743384239990529e-01  4.9932121945629248e+01  2.0342318934565857e+00  5.2338657463648612e+00  1.7504735026786364e+01  7.0543798439765517e+00  3.8207052337401497e+00  2.8389423313572015e+00  2.4697337640600765e+01  4.3982812593086962e+00  1.5617520493173087e+01  2.8359465848667722e+00  2.4102171620043138e+00  2.4111123473269853e+01  1.1206712765369847e+01  3.7617384853582569e+00  3.2742867105068147e+00  1.1520011738821390e+01  2.9392304890437916e+01  7.2632178326759689e-01  3.0233896600312717e+00  2.6893420781173663e+00  -1.5622166550100698e+00  2.4964527019075245e+01  3.3694579756228435e+00  4.1626292943605119e+00  1.4229759111286895e+00  2.3653876254985491e+00  3.4874647269428096e+00  8.1135778346036886e+00  4.