<?xml version="1.0"?>
<VTKFile type="UnstructuredGrid"  version="0.1"  >
<UnstructuredGrid>
<Piece  NumberOfPoints="3160" NumberOfCells="5316">
<Points>
<DataArray  type="Float64"  NumberOfComponents="3"  format="ascii">1.25 0 0  1.249623523370255 0.03067653565364036 0  1.248494320256466 0.06133459290927252 0  1.246613070848363 0.09195570449958429 0  1.243980908340246 0.1225214254119508 0  1.240599418248387 0.1530133439990203 0  1.236470637455976 0.1834130930692022 0  1.231597052986177 0.2137023609503765 0  1.225981600504038 0.2438629025201603 0  1.219627662548161 0.2738765501960873 0  1.21253906649318 0.3037252248790798 0  1.2047200822443 0.333390946843623 0  1.196175419665261 0.3628558465680779 0  1.186910225741296 0.3921021754986144 0  1.176930081478776 0.4211123167402751 0  1.166240998543424 0.4498687956687352 0  1.154849415639108 0.4783542904563622 0  1.142762194629413 0.5065516425062373 0  1.129986616404304 0.5344438667878526 0  1.116530376494394 0.5620141620682582 0  1.102401580435444 0.5892459210324971 0  1.087608738885889 0.61612274028723 0  1.07216076250034 0.642628430241527 0  1.056066956562134 0.6687470248588714 0  1.039337015378182 0.6944627912745027 0  1.02198101643948 0.7197602392723067 0  1.004009414350806 0.7446241306155417 0  0.9854330345332579 0.7690394882257835 0  0.9662630667034212 0.7929916052045569 0  0.9465110581331058 0.8164660536922209 0  0.9261889066936989 0.8394486935587729 0  0.9053088536893338 0.8619256809213336 0  0.8838834764831844 0.8838834764831843 0  0.8619256809213337 0.9053088536893337 0  0.8394486935587729 0.9261889066936989 0  0.8164660536922209 0.9465110581331055 0  0.7929916052045569 0.9662630667034212 0  0.7690394882257835 0.9854330345332578 0  0.7446241306155419 1.004009414350806 0  0.7197602392723067 1.02198101643948 0  0.6944627912745028 1.039337015378182 0  0.6687470248588716 1.056066956562134 0  0.642628430241527 1.07216076250034 0  0.6161227402872301 1.087608738885889 0  0.5892459210324973 1.102401580435444 0  0.5620141620682583 1.116530376494394 0  0.5344438667878527 1.129986616404304 0  0.5065516425062373 1.142762194629413 0  0.4783542904563623 1.154849415639108 0  0.4498687956687353 1.166240998543424 0  0.4211123167402751 1.176930081478776 0  0.3921021754986145 1.186910225741296 0  0.3628558465680779 1.196175419665261 0  0.333390946843623 1.2047200822443 0  0.30372522487908 1.21253906649318 0  0.2738765501960872 1.219627662548161 0  0.2438629025201604 1.225981600504038 0  0.2137023609503767 1.231597052986177 0  0.1834130930692022 1.236470637455976 0  0.1530133439990203 1.240599418248387 0  0.122521425411951 1.243980908340246 0  0.09195570449958432 1.246613070848363 0  0.06133459290927266 1.248494320256466 0  0.03067653565364033 1.249623523370255 0  7.654042494670958e-17 1.25 0  -0.03067653565364018 1.249623523370255 0  -0.06133459290927251 1.248494320256466 0  -0.09195570449958416 1.246613070848363 0  -0.1225214254119508 1.243980908340246 0  -0.1530133439990202 1.240599418248387 0  -0.1834130930692021 1.236470637455976 0  -0.2137023609503766 1.231597052986177 0  -0.2438629025201602 1.225981600504038 0  -0.2738765501960871 1.219627662548161 0  -0.3037252248790798 1.21253906649318 0  -0.3333909468436229 1.2047200822443 0  -0.3628558465680777 1.196175419665261 0  -0.3921021754986143 1.186910225741296 0  -0.4211123167402749 1.176930081478776 0  -0.4498687956687352 1.166240998543424 0  -0.4783542904563621 1.154849415639108 0  -0.5065516425062372 1.142762194629413 0  -0.5344438667878524 1.129986616404304 0  -0.5620141620682584 1.116530376494394 0  -0.5892459210324972 1.102401580435444 0  -0.61612274028723 1.087608738885889 0  -0.642628430241527 1.07216076250034 0  -0.6687470248588713 1.056066956562134 0  -0.6944627912745025 1.039337015378182 0  -0.7197602392723067 1.02198101643948 0  -0.7446241306155417 1.004009414350806 0  -0.7690394882257834 0.9854330345332579 0  -0.7929916052045567 0.9662630667034213 0  -0.8164660536922207 0.9465110581331059 0  -0.8394486935587731 0.9261889066936988 0  -0.8619256809213337 0.9053088536893337 0  -0.8838834764831843 0.8838834764831844 0  -0.9053088536893334 0.8619256809213338 0  -0.9261889066936986 0.8394486935587732 0  -0.9465110581331058 0.8164660536922208 0  -0.9662630667034212 0.7929916052045569 0  -0.9854330345332578 0.7690394882257836 0  -1.004009414350806 0.7446241306155419 0  -1.02198101643948 0.7197602392723068 0  -1.039337015378182 0.6944627912745027 0  -1.056066956562134 0.6687470248588714 0  -1.07216076250034 0.6426284302415273 0  -1.087608738885889 0.6161227402872302 0  -1.102401580435444 0.5892459210324973 0  -1.116530376494394 0.5620141620682586 0  -1.129986616404304 0.5344438667878525 0  -1.142762194629413 0.5065516425062374 0  -1.154849415639108 0.4783542904563624 0  -1.166240998543424 0.4498687956687354 0  -1.176930081478776 0.4211123167402754 0  -1.186910225741296 0.3921021754986143 0  -1.196175419665261 0.362855846568078 0  -1.2047200822443 0.3333909468436231 0  -1.21253906649318 0.3037252248790801 0  -1.219627662548161 0.2738765501960876 0  -1.225981600504038 0.2438629025201608 0  -1.231597052986177 0.2137023609503765 0  -1.236470637455976 0.1834130930692023 0  -1.240599418248387 0.1530133439990204 0  -1.243980908340246 0.122521425411951 0  -1.246613070848363 0.09195570449958466 0  -1.248494320256466 0.06133459290927246 0  -1.249623523370255 0.03067653565364041 0  -1.25 1.530808498934192e-16 0  -1.249623523370255 -0.0306765356536401 0  -1.248494320256466 -0.06133459290927215 0  -1.246613070848363 -0.09195570449958437 0  -1.243980908340246 -0.1225214254119507 0  -1.240599418248387 -0.1530133439990201 0  -1.236470637455976 -0.183413093069202 0  -1.231597052986177 -0.2137023609503762 0  -1.225981600504038 -0.2438629025201605 0  -1.219627662548161 -0.2738765501960873 0  -1.21253906649318 -0.3037252248790798 0  -1.2047200822443 -0.3333909468436228 0  -1.196175419665261 -0.3628558465680776 0  -1.186910225741296 -0.392102175498614 0  -1.176930081478776 -0.4211123167402752 0  -1.166240998543424 -0.4498687956687352 0  -1.154849415639108 -0.4783542904563621 0  -1.142762194629413 -0.5065516425062371 0  -1.129986616404304 -0.5344438667878523 0  -1.116530376494394 -0.5620141620682583 0  -1.102401580435444 -0.5892459210324971 0  -1.087608738885889 -0.6161227402872299 0  -1.07216076250034 -0.6426284302415269 0  -1.056066956562134 -0.6687470248588712 0  -1.039337015378182 -0.6944627912745025 0  -1.02198101643948 -0.7197602392723067 0  -1.004009414350806 -0.7446241306155416 0  -0.9854330345332579 -0.7690394882257834 0  -0.9662630667034213 -0.7929916052045566 0  -0.946511058133106 -0.8164660536922207 0  -0.9261889066936989 -0.8394486935587731 0  -0.9053088536893338 -0.8619256809213336 0  -0.8838834764831847 -0.8838834764831843 0  -0.8619256809213338 -0.9053088536893334 0  -0.8394486935587733 -0.9261889066936986 0  -0.8164660536922214 -0.9465110581331053 0  -0.7929916052045574 -0.9662630667034209 0  -0.7690394882257841 -0.9854330345332574 0  -0.7446241306155414 -1.004009414350806 0  -0.7197602392723066 -1.02198101643948 0  -0.6944627912745027 -1.039337015378182 0  -0.6687470248588716 -1.056066956562134 0  -0.6426284302415273 -1.07216076250034 0  -0.6161227402872302 -1.087608738885889 0  -0.5892459210324973 -1.102401580435444 0  -0.5620141620682586 -1.116530376494394 0  -0.5344438667878531 -1.129986616404304 0  -0.506551642506238 -1.142762194629413 0  -0.4783542904563629 -1.154849415639108 0  -0.4498687956687349 -1.166240998543424 0  -0.4211123167402749 -1.176930081478776 0  -0.3921021754986143 -1.186910225741296 0  -0.3628558465680781 -1.196175419665261 0  -0.3333909468436231 -1.2047200822443 0  -0.3037252248790802 -1.21253906649318 0  -0.2738765501960876 -1.219627662548161 0  -0.2438629025201608 -1.225981600504038 0  -0.2137023609503771 -1.231597052986176 0  -0.1834130930692029 -1.236470637455976 0  -0.1530133439990199 -1.240599418248387 0  -0.1225214254119506 -1.243980908340246 0  -0.09195570449958419 -1.246613070848363 0  -0.06133459290927254 -1.248494320256466 0  -0.03067653565364049 -1.249623523370255 0  -2.296212748401287e-16 -1.25 0  0.03067653565364003 -1.249623523370255 0  0.06133459290927207 -1.248494320256466 0  0.09195570449958373 -1.246613070848363 0  0.1225214254119501 -1.243980908340246 0  0.1530133439990195 -1.240599418248387 0  0.1834130930692024 -1.236470637455976 0  0.2137023609503766 -1.231597052986177 0  0.2438629025201604 -1.225981600504038 0  0.2738765501960872 -1.219627662548161 0  0.3037252248790797 -1.21253906649318 0  0.3333909468436227 -1.2047200822443 0  0.3628558465680776 -1.196175419665261 0  0.3921021754986139 -1.186910225741296 0  0.4211123167402745 -1.176930081478776 0  0.4498687956687345 -1.166240998543424 0  0.4783542904563625 -1.154849415639108 0  0.5065516425062375 -1.142762194629413 0  0.5344438667878527 -1.129986616404304 0  0.5620141620682583 -1.116530376494394 0  0.589245921032497 -1.102401580435444 0  0.6161227402872298 -1.087608738885889 0  0.6426284302415269 -1.07216076250034 0  0.6687470248588712 -1.056066956562134 0  0.6944627912745023 -1.039337015378182 0  0.7197602392723061 -1.02198101643948 0  0.7446241306155411 -1.004009414350806 0  0.7690394882257838 -0.9854330345332576 0  0.792991605204557 -0.9662630667034211 0  0.8164660536922209 -0.9465110581331058 0  0.8394486935587729 -0.9261889066936989 0  0.8619256809213336 -0.9053088536893338 0  0.8838834764831842 -0.8838834764831847 0  0.9053088536893333 -0.8619256809213339 0  0.9261889066936986 -0.8394486935587733 0  0.9465110581331053 -0.8164660536922214 0  0.9662630667034209 -0.7929916052045574 0  0.9854330345332574 -0.7690394882257843 0  1.004009414350806 -0.7446241306155416 0  1.02198101643948 -0.7197602392723066 0  1.039337015378182 -0.6944627912745027 0  1.056066956562134 -0.6687470248588716 0  1.07216076250034 -0.6426284302415274 0  1.087608738885889 -0.6161227402872304 0  1.102401580435443 -0.5892459210324974 0  1.116530376494394 -0.5620141620682587 0  1.129986616404304 -0.5344438667878532 0  1.142762194629413 -0.50655164250623
[...]
<PointData  Scalars="f_6485032"> 
<DataArray  type="Float64"  Name="f_6485032"  format="ascii">1.6171951902572685e+00  1.5898247460805313e+00  1.5505551555529493e+00  1.5416117143087726e+00  1.5133073693608166e+00  1.4814357511792040e+00  1.4419337760870352e+00  1.4128430225107702e+00  1.3721901199294249e+00  1.3429969087334834e+00  1.2930890330664850e+00  1.2678146102561834e+00  1.2419522984440539e+00  1.2070488923008516e+00  1.1753413796387577e+00  1.1291094811343465e+00  1.1011861446252900e+00  1.0687387360205158e+00  1.0455007150091604e+00  1.0164464976806391e+00  9.7269839927685153e-01  9.3843611491160128e-01  9.1649381937602958e-01  8.9012431065083253e-01  8.7429895728198825e-01  8.4791784726891084e-01  8.2583113786090834e-01  8.1316586233011079e-01  7.9265152599013400e-01  7.7827942785879078e-01  7.6462016697634938e-01  7.4555207943056878e-01  7.3544254558017519e-01  7.2186692389717200e-01  7.2038761858534117e-01  7.4552618378664104e-01  7.2299226451580934e-01  7.3531384288864909e-01  7.2290419044718068e-01  7.1802462313256277e-01  7.3392253164050858e-01  7.4041395090266926e-01  7.3427347177369018e-01  7.4248303240580138e-01  7.6345485540914060e-01  7.6185316475088594e-01  7.8079866232237882e-01  8.0008972554732716e-01  8.2827817883765598e-01  8.3866342432104690e-01  8.5950612557036687e-01  8.7991323211663086e-01  8.8741213387040718e-01  9.1267524417307477e-01  9.4388550383331637e-01  9.3973443109148713e-01  9.6369973247177632e-01  9.7696272600612866e-01  1.0111581714546658e+00  1.0502572545856772e+00  1.0681499014513733e+00  1.0962841998662372e+00  1.1222349004859939e+00  1.1439936203337240e+00  1.1568287739506691e+00  1.1717244122331463e+00  1.1865686258558059e+00  1.1985199583968782e+00  1.2131592347728111e+00  1.2186508950296577e+00  1.2271226311048848e+00  1.2215077019543625e+00  1.2071859159488751e+00  1.1815249060087669e+00  1.1382972923622039e+00  1.1318165339450501e+00  1.1094942331671447e+00  1.0796497589572180e+00  1.0664845737672450e+00  1.0478753365216380e+00  1.0206321307825585e+00  1.0053873834455573e+00  9.8395734328983597e-01  9.5312682695523887e-01  9.3471832826019785e-01  9.1753358870151780e-01  9.0481707217717411e-01  8.7612434552379026e-01  8.5017575887824115e-01  8.5212102372105136e-01  8.6157292348472636e-01  8.5229998925536465e-01  8.3456177375427953e-01  8.4105089684079803e-01  8.4144272313352797e-01  8.5414392066045275e-01  8.7277915813476981e-01  8.9425364857331457e-01  9.3220099993232874e-01  9.6071672303234024e-01  1.0043831006501809e+00  1.0709090319331906e+00  1.1429575455968868e+00  1.2089676110448599e+00  1.2907947310903460e+00  1.3777566913525359e+00  1.4762057253049601e+00  1.5963207974160147e+00  1.7130488884770614e+00  1.8863776854304324e+00  2.0746869438422388e+00  2.2186914057092726e+00  2.3857290250864649e+00  2.5838179788104338e+00  2.7472407669605610e+00  2.9107900867074590e+00  3.0772443771246345e+00  3.2392890084099735e+00  3.4237611868308027e+00  3.5770513639697881e+00  3.7501426018627719e+00  3.8684628366292158e+00  4.0405546606993017e+00  4.1783779010479494e+00  4.3309182098293002e+00  4.4426594612996109e+00  4.5511168588523478e+00  4.6307538913258455e+00  4.7598726704979866e+00  4.8541563913099424e+00  4.8996597305914307e+00  4.9436286448638702e+00  5.0083813412501303e+00  5.0313154530875597e+00  5.0594173721128692e+00  5.0703225919592825e+00  5.0252220504883001e+00  5.0059319535501627e+00  4.9362483996790880e+00  4.8152256044917294e+00  4.7119579227029549e+00  4.5734607032780970e+00  4.4502922657843476e+00  4.2614226601064180e+00  4.0687965704071960e+00  3.8726421779265192e+00  3.6927671875483679e+00  3.5517222872697736e+00  3.4240592876460445e+00  3.3411152367104435e+00  3.2331806637301308e+00  3.1497286313086219e+00  3.0317090248323715e+00  2.9051555840573666e+00  2.7796703703398022e+00  2.6325281579691731e+00  2.5226914359776433e+00  2.4257052567369080e+00  2.3254565901731001e+00  2.2154496413818814e+00  2.1142300094946243e+00  2.0155462086011227e+00  1.8562056726030094e+00  1.7382795073494750e+00  1.6527281063249930e+00  1.5352206653488085e+00  1.4511161309452103e+00  1.3699250889663817e+00  1.3338556233321099e+00  1.3125223232644625e+00  1.2475706441413017e+00  1.1863630157392751e+00  1.1612252309135158e+00  1.1145223795948704e+00  1.0864664684447729e+00  1.0607903527884313e+00  1.0313020977398868e+00  1.0148677810902453e+00  1.0107503497287600e+00  9.8759886220458593e-01  9.7614466995391824e-01  9.6183401818395298e-01  9.5937631552246982e-01  9.6332364521390301e-01  9.6077411411868430e-01  9.5839084552276865e-01  9.6429276584327184e-01  9.7816079059654570e-01  9.9126930617985565e-01  1.0096270604187698e+00  1.0320158428701887e+00  1.0452180158920081e+00  1.0707991439808289e+00  1.0937066088051803e+00  1.1218807844477476e+00  1.1426128583653676e+00  1.1827995571188785e+00  1.2140547133566051e+00  1.2480904174209901e+00  1.2805115912975151e+00  1.3114958907196530e+00  1.3550942117940903e+00  1.3858409081511818e+00  1.4274973300348472e+00  1.4527717651931145e+00  1.4800263774199687e+00  1.5225935290352941e+00  1.5393593745092482e+00  1.5813831337019484e+00  1.6044091150549356e+00  1.6133115288130044e+00  1.6166401276584745e+00  1.6578223012769222e+00  1.6796032691341467e+00  1.7310226245885727e+00  1.7444764221225881e+00  1.7762635802654334e+00  1.7716638401254239e+00  1.7814730804279779e+00  1.8095882876666307e+00  1.8190698141068693e+00  1.8880453156091659e+00  1.9257382976388044e+00  1.9242621063289691e+00  1.9340454730712910e+00  1.9426577379914771e+00  1.9445074525917212e+00  1.9133332369200811e+00  1.9235406557343777e+00  1.9599286630932804e+00  1.9795980520332621e+00  1.9909490410391630e+00  1.9776170597228442e+00  1.9785838850001420e+00  1.9589197452494549e+00  1.9568888157267887e+00  1.9505933929109056e+00  1.9852834176107654e+00  1.9602039068255392e+00  1.9686643392800474e+00  1.9354563245971572e+00  1.9317456204170027e+00  1.9220042204762988e+00  1.9013110068497685e+00  1.8876044655139146e+00  1.8626056604174397e+00  1.8467532125921942e+00  1.8113197940840104e+00  1.8080304061037071e+00  1.7897614077377986e+00  1.7650204998354269e+00  1.7591697324187248e+00  1.7200844730440357e+00  1.7245177705741266e+00  1.6811954405331251e+00  1.6511617585641227e+00  2.9497405113571591e+00  2.8917435141191339e+00  2.8476319908194130e+00  2.8055641788236687e+00  2.7589559973928863e+00  2.7010994607865784e+00  2.6459851943145365e+00  2.5921782098153967e+00  2.5337088783217800e+00  2.4637703560326658e+00  2.4038804324852285e+00  2.3428843731873363e+00  2.2763896983568199e+00  2.2177539644914659e+00  2.1515777511812995e+00  2.0889062465130972e+00  2.0206509181576235e+00  1.9549694495768379e+00  1.8950186082671059e+00  1.8245771419363688e+00  1.7640200106365138e+00  1.7038754106486764e+00  1.6328418982307240e+00  1.5512684729126189e+00  1.4869951328068256e+00  1.4196149023478952e+00  1.3610338109311437e+00  1.3063847717574917e+00  1.2456104030507487e+00  1.1915284602846838e+00  1.1321490861756096e+00  1.0831634283137848e+00  1.0327740843970599e+00  9.8741416193491882e-01  9.3685690380739817e-01  8.8196135628418948e-01  8.4724381014188355e-01  8.1044925754121144e-01  7.7383295208928349e-01  7.3739270508598209e-01  7.0956413880588975e-01  6.8533769855419602e-01  6.6388542578725296e-01  6.4314165931437461e-01  6.2434320728554615e-01  6.1008330815413470e-01  6.0161553260270140e-01  5.9499748617182169e-01  5.9349208607646509e-01  5.9353267572612411e-01  5.9524735690945041e-01  6.0438608469905764e-01  6.0940278935147196e-01  6.1831081055282766e-01  6.3488252078670748e-01  6.5205623156439840e-01  6.7571343559082664e-01  7.0158256190046342e-01  7.2516620852531899e-01  7.6346509649573402e-01  7.9867110470152958e-01  8.3515503525011392e-01  8.6980849356690637e-01  9.1592708385581700e-01  9.5838869032470431e-01  9.9782687257314329e-01  1.0399734899499928e+00  1.0995816499124189e+00  1.1618401116360819e+00  1.2172407637092446e+00  1.2642335031943088e+00  1.3132009636957025e+00  1.3803027898186557e+00  1.4512579431894785e+00  1.5085534450191103e+00  1.5862779261997082e+00  1.6589639175675390e+00  1.7288453829566093e+00  1.7929944632109680e+00  1.8785393951554947e+00  1.9660830496943578e+00  2.0376912329083634e+00  2.1321723582026433e+00  2.2145473320909543e+00  2.2997776633322604e+00  2.3578964944575609e+00  2.4544643421281340e+00  2.5213366296913939e+00  2.5822221750456618e+00  2.6767781230336958e+00  2.7808597836829927e+00  2.8518819570018916e+00  2.9182624665508325e+00  3.0033329998499183e+00  3.0669383771486531e+00  3.1528898045581859e+00  3.2516163870407331e+00  3.3241809024004225e+00  3.3897544256000343e+00  3.4618138530638576e+00  3.5194262975902126e+00  3.5973564346492348e+00  3.6824122292240968e+00  3.7652435364186583e+00  3.8561356910416373e+00  3.9301968638304294e+00  3.9900700662876409e+00  4.0451910046727981e+00  4.1184364857222295e+00  4.2122764469582235e+00  4.2973384529259100e+00  4.3733400291973794e+00  4.4187053342803324e+00  4.4539167819311034e+00  4.4852311980038468e+00  4.5123887019759632e+00  4.5412382405364529e+00  4.5565906665019957e+00  4.5748747083866252e+00  4.5940034477370988e+00  4.5978764482652670e+00  4.5947884258680274e+00  4.5956553293161226e+00  4.5719883561790553e+00  4.5258097524203942e+00  4.4801089848194176e+00  4.4461440908302388e+00  4.3925002943488680e+00  4.3088661893196480e+00  4.2258668942799149e+00  4.1637294383392325e+00  4.0919008701768629e+00  4.0122210271830081e+00  3.9037397995686862e+00  3.7871585896166939e+00  3.6916334522763008e+00  3.5856915191897749e+00  3.4795251153356150e+00  3.3661805992575249e+00  3.2494827413946221e+00  3.1267174990253643e+00  2.9974499461907871e+00  2.8908845739175266e+00  2.7771339542555582e+00  2.6563939904127336e+00  2.5460650866355428e+00  2.4509744770080348e+00  2.3496437057361237e+00  2.2400162220406012e+00  2.1498372772878862e+00  2.0438727868950903e+00  1.9633462891349582e+00  1.8658633824140545e+00  1.7768615554717322e+00  1.6749508312279009e+00  1.5836402788334949e+00  1.4920372157342405e+00  1.4051283687054830e+00  1.3197853547765968e+00  1.2484613270543530e+00  1.1785809953260125e+00  1.1086054062899457e+00  1.0441119928746176e+00  9.8959075490961257e-01  9.4139263067332923e-01  8.8898801397086502e-01  8.4587143902111561e-01  7.9576861485599082e-01  7.4628750460914184e-01  7.2448415572285085e-01  6.9306254932227784e-01  6.6537043887018499e-01  6.3467293962248617e-01  6.2004605083780207e-01  6.0664207663810366e-01  5.9321222733428614e-01  5.7779573922970129e-01  5.7205003014822209e-01  5.7501988137587334e-01  5.7885079256102612e-01  5.8582704587697398e-01  5.9846153053027829e-01  6.0524069625212795e-01  6.1902006502350038e-01  6.4335901941693041e-01  6.7609568930567654e-01  6.9339192572359987e-01  7.2332060223372174e-01  7.5395947771620331e-01  7.8909092084789756e-01  8.1897906326979364e-01  8.6412724266120777e-01  8.9979098703664562e-01  9.4935469954463836e-01  1.0073311519604271e+00  1.0456688992456169e+00  1.0946234402096595e+00  1.1697264028982157e+00  1.2199606894799269e+00  1.2741470859224024e+00  1.3315223679241124e+00  1.4016860611306841e+00  1.4599426426494215e+00  1.5309106434730320e+00  1.5900764286441758e+00  1.6577174284127281e+00  1.7251525753692201e+00  1.7963117292227724e+00  1.8607597376463192e+00  1.9396983747364780e+00  1.9920680823391510e+00  2.0793983392821125e+00  2.1590581504151212e+00  2.2259870760161014e+00  2.2805610343188949e+00  2.3344025068343437e+00  2.4109683969956484e+00  2.4923528571872247e+00  2.5527083165564028e+00  2.6129804160027130e+00  2.6719552471883827e+00  2.7233813529617210e+00  2.7790770576741086e+00  2.8333135660295974e+00  2.8553028363629158e+00  2.9101193632468574e+00  2.9498272324533854e+00  2.9895403283293911e+00  3.0404726859852489e+00  3.0874242114711965e+00  3.1158854863117584e+00  3.1495073606088164e+00  3.1746738868877258e+00  3.1993896787283251e+00  3.2296182490302257e+00  3.2509580258904145e+00  3.2399875672763341e+00  3.2476968043266208e+00  3.2609679368754945e+00  3.2613075085115111e+00  3.2722689987748104e+00  3.2529597665420034e+00  3.2573668080194524e+00  3.2708163081658941e+00  3.2758148071386652e+00  3.2541890608306780e+00  3.2491814392172484e+00  3.2381112797200347e+00  3.2087837283659031e+00  3.1873228941579330e+00  3.1576385193364884e+00  3.1300982924901120e+00  3.1032294556190791e+00  3.0599976404676674e+00  3.0303393807315864e+00  2.9904806409423839e+00  1.4102245837919543e+00  1.5869563365248283e+00  1.2575556615437571e+00  1.6926966515164343e+00  1.0873275343722892e+00  1.7279769353113659e+00  1.0021741940010409e+00  1.7343539743965841e+00  9.0535077404571451e-01  1.6838272449243372e+00  8.7935659671493804e-01  1.5956822368034358e+00  8.2613398350673350e-01  1.5054510561000258e+00  8.4029130502733840e-01  1.3861626013601176e+00  8.8828137737950519e-01  1.2499100335109412e+00  1.1340722616165915e+00  9.4474200179497081e-01  1.1240997416101501e+00  1.1447340295024981e+00  1.1962392056886229e+00  2.1021723265371230e+00  1.5536543249818264e+00  1.8812412463716168e+00  2.2809974066166663e+00  1.1249880890841804e+00  1.2759210332054667e+00  1.1729129312513520e+00  2.3575897304800857e+00  1.0226460547862042e+00  1.2628402062209381e+00  1.2551464472137159e+00  1.2463444211623573e+00  2.3267521714861998e+00  1.0403494863214455e+00  1.1439508492342834e+00  1.0055875592824612e+00  1.0708163326505706e+00  1.2960053434243521e+00  2.1729900513793736e+00  1.2689130154784611e+00  1.2072190679641852e+00  1.0402758581137015e+00  2.1807409794748067e+00  8.3949172200393540e-01  1.1229895576985125e+00  1.3908037039166612e+00  1.0422801515469156e+00  1.4165095832745267e+00  9.0347746984414057e-01  1.1535683532347139e+00  1.2466736552476847e+00  1.5006266000593420e+00  1.7840419023017497e+00  1.2301289240706257e+00  1.0525393885730909e+00  1.3981233847621719e+00  9.7131487058790356e-01  2.0949463553494931e+00  2.2729739772212132e+00  2.3900015415800460e+00  7.2687549444045008e-01  2.4504790916447350e+00  2.4693438356070656e+00  1.2672360579261603e+00  1.1132574806932336e+00  8.1438188587862492e-01  1.0935121908389811e+00  1.3938967333952921e+00  1.2495253844862586e+00  1.8118749748399816e+00  6.9192275236493961e-01  1.3232712499269792e+00  7.8587737268229951e-01  7.5956291746471727e-01  1.6130086498494867e+00  1.3229410733256766e+00  1.1535165075004739e+00  1.2957101412777308e+00  1.0211240746941885e+00  2.0060560499382682e+00  1.2653612975522470e+00  1.5463524011198260e+00  1.5355069142923734e+00  7.0561408055110708e-01  1.5832808131942699e+00  1.7770109358885464e+00  1.2588362809306934e+00  2.3316558052653447e+00  1.0511057449884462e+00  6.8773219980824307e-01  1.2084796960620647e+00  7.1404965195248182e-01  1.2003509946126578e+00  1.1625214549825122e+00  9.8219760339255968e-01  1.0328187299343590e+00  1.7601551586902329e+00  1.7203482663152043e+00  1.2279558271549942e+00  1.0496609065859543e+00  1.3215821076217340e+00  1.3595869844688073e+00  1.5564929346301051e+00  1.4204046190799600e+00  1.5238456010585835e+00  8.0515208063207810e-01  9.6542944160530919e-01  1.6574540210230417e+00  1.7525922383084389e+00  1.1572369779203042e+00  7.0515494597586648e-01  1.7710527536531719e+00  1.2955665023550760e+00  1.8310672392417839e+00  1.2476808228919762e+00  9.3018127067973266e-01  7.2995323906993437e-01  1.1965939415123694e+00  1.2175896919031646e+00  1.1820827501183746e+00  2.0028915567960834e+00  1.0236807422952525e+00  6.7974436664431259e-01  1.9625784507341784e+00  1.2050154654412863e+00  1.1276431147903103e+00  1.7200577975313069e+00  2.6444140672916352e+00  1.1338408478042945e+00  1.0794564448684545e+00  1.0509767884496688e+00  2.5575233652205838e+00  9.0659818613964571e-01  2.3794006085498975e+00  2.2248213323612287e+00  7.1858190796779309e-01  1.0300102800545632e+00  1.6450040448848957e+00  1.6035238459974932e+00  1.6375126049548656e+00  9.4920346890736162e-01  2.7525570788832407e+00  2.7882638889020468e+00  1.2151099342376845e+00  1.3003687306098097e+00  1.4080965368676033e+00  8.6587112116543952e-01  1.3150176338475998e+00  9.2798269901999031e-01  1.1308790903037407e+00  9.1685583303507190e-01  1.3856569125308329e+00  1.2639839262212145e+00  1.8598109556194360e+00  1.1370714653866056e+00  1.5875331939850534e+00  1.6060685646583059e+00  1.1152555269997531e+00  1.2281998366748426e+00  8.5992504126771396e-01  1.5146158901827740e+00  9.2839865319763737e-01  1.9811938868592862e+00  2.7746680632152714e+00  2.8147786059144559e+00  1.1276845248894911e+00  1.6042716262485082e+00  1.2209228991611656e+00  1.9802870597823845e+00  1.5581755181671408e+00  1.0560078847820809e+00  2.1830421207550450e+00  1.0308039986049400e+00  9.4387509200125974e-01  1.5888504446344156e+00  1.1193654884652555e+00  9.5592236456540414e-01  1.5020233946303145e+00  1.5205402028271267e+00  1.0390177839941068e+00  2.7953392356583211e+00  2.7660340390418945e+00  1.0157158467458312e+00  1.9222868374530591e+00  1.1402460765190368e+00  1.2657713374655097e+00  1.0317216717469802e+00  7.6852716670072685e-01  1.0305866920619868e+00  9.4809724049817312e-01  1.5061163040242207e+00  1.9577999701126489e+00  1.5784302341275946e+00  1.4931173566993385e+00  8.5850201175724139e-01  1.4894108434408992e+00  1.1933723006830936e+00  1.0993321372879985e+00  1.9884744127362564e+00  2.5888368860044757e+00  2.4290535563148485e+00  8.6301451764764070e-01  2.1405839853212467e+00  1.1219025373684133e+00  1.0230891827241286e+00  1.4702892072660132e+00  1.1803606196103633e+00  8.5426465172813804e-01  8.6621846461642960e-01  9.6296834377744445e-01  9.6456215627838593e-01  1.2237607549852283e+00  1.0348599355001873e+00  8.3744860461188786e-01  2.0743125615167544e+00  1.4228796793521676e+00  8.5243197066267717e-01  2.0483435584408749e+00  1.4264036669603337e+00  1.4257405734331743e+00  9.3874998109009455e-01  1.1598046067039613e+00  1.3812674168931045e+00  9.9769368694923333e-01  2.1441291280356873e+00  2.2059423837277610e+00  1.2137074565781654e+00  1.0894275171390437e+00  2.5298692248507484e+00  2.8139150218876381e+00  1.6083276010532312e+00  1.2037524893530513e+00  1.3351185891948023e+00  1.1831437198224024e+00  1.0320974613626912e+00  1.1182867936282612e+00  2.6377469174242791e+00  7.7306880813824141e-01  1.7919945678442073e+00  2.8836074074168239e+00  9.2667727748906759e-01  2.5981276238402442e+00  1.8164261249354554e+00  9.5373765710065539e-01  1.5402476739533271e+00  1.3916808304950332e+00  1.5073618629585497e+00  7.3445040990447163e-01  1.3385642202830141e+00  9.4296241990002472e-01  1.0878760050122542e+00  1.7258103802540889e+00  9.2746768059642692e-01  1.2062521571550138e+00  1.4043647995081221e+00  8.8348257481404402e-01  1.1079571339153120e+00  1.3010477200103321e+00  1.3582050220123656e+00  1.0500641082089111e+00  1.0397443850602508e+00  2.8185514304944892e+00  1.0290337686919488e+00  6.4304118516451070e-01  9.2092634766762205e-01  8.5319039144515119e-01  2.2921289254573063e+00  2.4337604252542797e+00  7.3935692113116347e-01  7.8576902481823130e-01  9.7168744808144070e-01  1.2784078530720910e+00  1.5037880590765136e+00  1.1802132696265037e+00  1.2477333551528713e+00  1.1138403529193042e+00  1.2921539328692520e+00  9.0449236275355627e-01  8.6203224250478583e-01  1.3831431498773274e+00  9.6822707893191262e-01  2.0653478585173013e+00  1.7614371306187515e+00  1.9943766240125038e+00  1.0591487745362791e+00  1.0010910900082257e+00  1.1095755762403037e+00  7.3006392943377796e-01  8.9193796993302099e-01  1.9880264847368412e+00  1.6080338803825165e+00  6.9396355203201809e-01  8.3697526378398479e-01  1.0492152132586663e+00  1.1213203167837769e+00  2.7963852921092505e+00  1.0672198774736446e+00  9.7397079485195848e-01  9.5349242341799201e-01  1.3349017821672100e+00  1.5536594841314308e+00  6.8896601933250856e-01  2.8400149085049931e+00  1.1137509088369923e+00  1.3334119818277761e+00  3.0464274212153208e+00  7.9017300632289711e-01  1.7305203888204206e+00  1.6082115792166665e+00  1.4048211474953245e+00  1.6940132102443457e+00  1.1194331581637915e+00  1.5692805593961376e+00  2.1506302692483601e+00  1.0649175