<?xml version="1.0"?>
<VTKFile type="UnstructuredGrid"  version="0.1"  >
<UnstructuredGrid>
<Piece  NumberOfPoints="3832" NumberOfCells="6444">
<Points>
<DataArray  type="Float64"  NumberOfComponents="3"  format="ascii">1.25 0 0  1.249623523370255 0.03067653565364036 0  1.248494320256466 0.06133459290927252 0  1.246613070848363 0.09195570449958429 0  1.243980908340246 0.1225214254119508 0  1.240599418248387 0.1530133439990203 0  1.236470637455976 0.1834130930692022 0  1.231597052986177 0.2137023609503765 0  1.225981600504038 0.2438629025201603 0  1.219627662548161 0.2738765501960873 0  1.21253906649318 0.3037252248790798 0  1.2047200822443 0.333390946843623 0  1.196175419665261 0.3628558465680779 0  1.186910225741296 0.3921021754986144 0  1.176930081478776 0.4211123167402751 0  1.166240998543424 0.4498687956687352 0  1.154849415639108 0.4783542904563622 0  1.142762194629413 0.5065516425062373 0  1.129986616404304 0.5344438667878526 0  1.116530376494394 0.5620141620682582 0  1.102401580435444 0.5892459210324971 0  1.087608738885889 0.61612274028723 0  1.07216076250034 0.642628430241527 0  1.056066956562134 0.6687470248588714 0  1.039337015378182 0.6944627912745027 0  1.02198101643948 0.7197602392723067 0  1.004009414350806 0.7446241306155417 0  0.9854330345332579 0.7690394882257835 0  0.9662630667034212 0.7929916052045569 0  0.9465110581331058 0.8164660536922209 0  0.9261889066936989 0.8394486935587729 0  0.9053088536893338 0.8619256809213336 0  0.8838834764831844 0.8838834764831843 0  0.8619256809213337 0.9053088536893337 0  0.8394486935587729 0.9261889066936989 0  0.8164660536922209 0.9465110581331055 0  0.7929916052045569 0.9662630667034212 0  0.7690394882257835 0.9854330345332578 0  0.7446241306155419 1.004009414350806 0  0.7197602392723067 1.02198101643948 0  0.6944627912745028 1.039337015378182 0  0.6687470248588716 1.056066956562134 0  0.642628430241527 1.07216076250034 0  0.6161227402872301 1.087608738885889 0  0.5892459210324973 1.102401580435444 0  0.5620141620682583 1.116530376494394 0  0.5344438667878527 1.129986616404304 0  0.5065516425062373 1.142762194629413 0  0.4783542904563623 1.154849415639108 0  0.4498687956687353 1.166240998543424 0  0.4211123167402751 1.176930081478776 0  0.3921021754986145 1.186910225741296 0  0.3628558465680779 1.196175419665261 0  0.333390946843623 1.2047200822443 0  0.30372522487908 1.21253906649318 0  0.2738765501960872 1.219627662548161 0  0.2438629025201604 1.225981600504038 0  0.2137023609503767 1.231597052986177 0  0.1834130930692022 1.236470637455976 0  0.1530133439990203 1.240599418248387 0  0.122521425411951 1.243980908340246 0  0.09195570449958432 1.246613070848363 0  0.06133459290927266 1.248494320256466 0  0.03067653565364033 1.249623523370255 0  7.654042494670958e-17 1.25 0  -0.03067653565364018 1.249623523370255 0  -0.06133459290927251 1.248494320256466 0  -0.09195570449958416 1.246613070848363 0  -0.1225214254119508 1.243980908340246 0  -0.1530133439990202 1.240599418248387 0  -0.1834130930692021 1.236470637455976 0  -0.2137023609503766 1.231597052986177 0  -0.2438629025201602 1.225981600504038 0  -0.2738765501960871 1.219627662548161 0  -0.3037252248790798 1.21253906649318 0  -0.3333909468436229 1.2047200822443 0  -0.3628558465680777 1.196175419665261 0  -0.3921021754986143 1.186910225741296 0  -0.4211123167402749 1.176930081478776 0  -0.4498687956687352 1.166240998543424 0  -0.4783542904563621 1.154849415639108 0  -0.5065516425062372 1.142762194629413 0  -0.5344438667878524 1.129986616404304 0  -0.5620141620682584 1.116530376494394 0  -0.5892459210324972 1.102401580435444 0  -0.61612274028723 1.087608738885889 0  -0.642628430241527 1.07216076250034 0  -0.6687470248588713 1.056066956562134 0  -0.6944627912745025 1.039337015378182 0  -0.7197602392723067 1.02198101643948 0  -0.7446241306155417 1.004009414350806 0  -0.7690394882257834 0.9854330345332579 0  -0.7929916052045567 0.9662630667034213 0  -0.8164660536922207 0.9465110581331059 0  -0.8394486935587731 0.9261889066936988 0  -0.8619256809213337 0.9053088536893337 0  -0.8838834764831843 0.8838834764831844 0  -0.9053088536893334 0.8619256809213338 0  -0.9261889066936986 0.8394486935587732 0  -0.9465110581331058 0.8164660536922208 0  -0.9662630667034212 0.7929916052045569 0  -0.9854330345332578 0.7690394882257836 0  -1.004009414350806 0.7446241306155419 0  -1.02198101643948 0.7197602392723068 0  -1.039337015378182 0.6944627912745027 0  -1.056066956562134 0.6687470248588714 0  -1.07216076250034 0.6426284302415273 0  -1.087608738885889 0.6161227402872302 0  -1.102401580435444 0.5892459210324973 0  -1.116530376494394 0.5620141620682586 0  -1.129986616404304 0.5344438667878525 0  -1.142762194629413 0.5065516425062374 0  -1.154849415639108 0.4783542904563624 0  -1.166240998543424 0.4498687956687354 0  -1.176930081478776 0.4211123167402754 0  -1.186910225741296 0.3921021754986143 0  -1.196175419665261 0.362855846568078 0  -1.2047200822443 0.3333909468436231 0  -1.21253906649318 0.3037252248790801 0  -1.219627662548161 0.2738765501960876 0  -1.225981600504038 0.2438629025201608 0  -1.231597052986177 0.2137023609503765 0  -1.236470637455976 0.1834130930692023 0  -1.240599418248387 0.1530133439990204 0  -1.243980908340246 0.122521425411951 0  -1.246613070848363 0.09195570449958466 0  -1.248494320256466 0.06133459290927246 0  -1.249623523370255 0.03067653565364041 0  -1.25 1.530808498934192e-16 0  -1.249623523370255 -0.0306765356536401 0  -1.248494320256466 -0.06133459290927215 0  -1.246613070848363 -0.09195570449958437 0  -1.243980908340246 -0.1225214254119507 0  -1.240599418248387 -0.1530133439990201 0  -1.236470637455976 -0.183413093069202 0  -1.231597052986177 -0.2137023609503762 0  -1.225981600504038 -0.2438629025201605 0  -1.219627662548161 -0.2738765501960873 0  -1.21253906649318 -0.3037252248790798 0  -1.2047200822443 -0.3333909468436228 0  -1.196175419665261 -0.3628558465680776 0  -1.186910225741296 -0.392102175498614 0  -1.176930081478776 -0.4211123167402752 0  -1.166240998543424 -0.4498687956687352 0  -1.154849415639108 -0.4783542904563621 0  -1.142762194629413 -0.5065516425062371 0  -1.129986616404304 -0.5344438667878523 0  -1.116530376494394 -0.5620141620682583 0  -1.102401580435444 -0.5892459210324971 0  -1.087608738885889 -0.6161227402872299 0  -1.07216076250034 -0.6426284302415269 0  -1.056066956562134 -0.6687470248588712 0  -1.039337015378182 -0.6944627912745025 0  -1.02198101643948 -0.7197602392723067 0  -1.004009414350806 -0.7446241306155416 0  -0.9854330345332579 -0.7690394882257834 0  -0.9662630667034213 -0.7929916052045566 0  -0.946511058133106 -0.8164660536922207 0  -0.9261889066936989 -0.8394486935587731 0  -0.9053088536893338 -0.8619256809213336 0  -0.8838834764831847 -0.8838834764831843 0  -0.8619256809213338 -0.9053088536893334 0  -0.8394486935587733 -0.9261889066936986 0  -0.8164660536922214 -0.9465110581331053 0  -0.7929916052045574 -0.9662630667034209 0  -0.7690394882257841 -0.9854330345332574 0  -0.7446241306155414 -1.004009414350806 0  -0.7197602392723066 -1.02198101643948 0  -0.6944627912745027 -1.039337015378182 0  -0.6687470248588716 -1.056066956562134 0  -0.6426284302415273 -1.07216076250034 0  -0.6161227402872302 -1.087608738885889 0  -0.5892459210324973 -1.102401580435444 0  -0.5620141620682586 -1.116530376494394 0  -0.5344438667878531 -1.129986616404304 0  -0.506551642506238 -1.142762194629413 0  -0.4783542904563629 -1.154849415639108 0  -0.4498687956687349 -1.166240998543424 0  -0.4211123167402749 -1.176930081478776 0  -0.3921021754986143 -1.186910225741296 0  -0.3628558465680781 -1.196175419665261 0  -0.3333909468436231 -1.2047200822443 0  -0.3037252248790802 -1.21253906649318 0  -0.2738765501960876 -1.219627662548161 0  -0.2438629025201608 -1.225981600504038 0  -0.2137023609503771 -1.231597052986176 0  -0.1834130930692029 -1.236470637455976 0  -0.1530133439990199 -1.240599418248387 0  -0.1225214254119506 -1.243980908340246 0  -0.09195570449958419 -1.246613070848363 0  -0.06133459290927254 -1.248494320256466 0  -0.03067653565364049 -1.249623523370255 0  -2.296212748401287e-16 -1.25 0  0.03067653565364003 -1.249623523370255 0  0.06133459290927207 -1.248494320256466 0  0.09195570449958373 -1.246613070848363 0  0.1225214254119501 -1.243980908340246 0  0.1530133439990195 -1.240599418248387 0  0.1834130930692024 -1.236470637455976 0  0.2137023609503766 -1.231597052986177 0  0.2438629025201604 -1.225981600504038 0  0.2738765501960872 -1.219627662548161 0  0.3037252248790797 -1.21253906649318 0  0.3333909468436227 -1.2047200822443 0  0.3628558465680776 -1.196175419665261 0  0.3921021754986139 -1.186910225741296 0  0.4211123167402745 -1.176930081478776 0  0.4498687956687345 -1.166240998543424 0  0.4783542904563625 -1.154849415639108 0  0.5065516425062375 -1.142762194629413 0  0.5344438667878527 -1.129986616404304 0  0.5620141620682583 -1.116530376494394 0  0.589245921032497 -1.102401580435444 0  0.6161227402872298 -1.087608738885889 0  0.6426284302415269 -1.07216076250034 0  0.6687470248588712 -1.056066956562134 0  0.6944627912745023 -1.039337015378182 0  0.7197602392723061 -1.02198101643948 0  0.7446241306155411 -1.004009414350806 0  0.7690394882257838 -0.9854330345332576 0  0.792991605204557 -0.9662630667034211 0  0.8164660536922209 -0.9465110581331058 0  0.8394486935587729 -0.9261889066936989 0  0.8619256809213336 -0.9053088536893338 0  0.8838834764831842 -0.8838834764831847 0  0.9053088536893333 -0.8619256809213339 0  0.9261889066936986 -0.8394486935587733 0  0.9465110581331053 -0.8164660536922214 0  0.9662630667034209 -0.7929916052045574 0  0.9854330345332574 -0.7690394882257843 0  1.004009414350806 -0.7446241306155416 0  1.02198101643948 -0.7197602392723066 0  1.039337015378182 -0.6944627912745027 0  1.056066956562134 -0.6687470248588716 0  1.07216076250034 -0.6426284302415274 0  1.087608738885889 -0.6161227402872304 0  1.102401580435443 -0.5892459210324974 0  1.116530376494394 -0.5620141620682587 0  1.129986616404304 -0.5344438667878532 0  1.142762194629413 -0.50655164250623
[...]
<PointData  Scalars="f_905682"> 
<DataArray  type="Float64"  Name="f_905682"  format="ascii">-1.6470579397156045e-03  -1.6286702373291574e-03  -1.6667881224938267e-03  -1.6783281351141861e-03  -1.6417787679301470e-03  -1.6237662694718092e-03  -1.6149399495794540e-03  -1.5987953640007738e-03  -1.5159400721257523e-03  -1.4505504075004016e-03  -1.4440083556976548e-03  -1.4049555778918553e-03  -1.3650103765357159e-03  -1.3572279562142277e-03  -1.3342416570420314e-03  -1.2057231690065493e-03  -1.1630104082024492e-03  -1.1108387732877924e-03  -1.0656596576834828e-03  -1.0148327024085474e-03  -9.1496375543840289e-04  -8.2372615696114405e-04  -7.6084278102621491e-04  -6.6523391332905745e-04  -5.9834142526872405e-04  -5.2150896567765032e-04  -4.5247714819264588e-04  -3.9942130651529970e-04  -3.3370476496172866e-04  -2.1779642998312484e-04  -1.4051826217696887e-04  -6.8249740183958630e-05  2.2278149121381854e-05  8.7960030790598917e-05  1.7030537625484208e-04  2.5697930223617273e-04  3.1120317762302406e-04  4.2519666373641454e-04  4.6631860435372696e-04  5.3892024759792049e-04  6.4269643350531964e-04  6.9623477522995217e-04  7.4156182203806496e-04  8.2652151817065047e-04  9.1660611399883266e-04  9.5301123681103663e-04  1.0188080282390957e-03  1.1141721772706095e-03  1.1527530828077095e-03  1.1357400334156597e-03  1.1541415229161399e-03  1.2326566634700629e-03  1.2934284646401847e-03  1.3897953144583598e-03  1.3993262855784363e-03  1.3704032786088904e-03  1.4824597464156532e-03  1.4901826848724704e-03  1.5193731263667782e-03  1.5272078367953436e-03  1.4397791378971154e-03  1.3737820917236608e-03  1.3554277386639078e-03  1.2546684347881766e-03  1.2569401296029714e-03  1.3029373315474155e-03  1.3213742959161884e-03  1.2700116514904318e-03  1.1130585544440838e-03  1.1719075134727405e-03  1.2157905449117279e-03  1.1631010163844671e-03  1.0061030918395342e-03  9.0516103606946071e-04  9.0796031915117020e-04  4.1212869491864855e-04  5.4823317763682991e-04  5.0885108782402881e-04  8.8909307655147952e-05  1.5755723788270384e-05  3.0285254929331384e-04  -3.4071982084597943e-05  -1.7273050326024512e-04  5.7965030651059366e-05  -2.8283212608169137e-04  4.2784839285398628e-05  5.3474333798240801e-05  -3.6609396773991035e-04  -4.2503551606570491e-04  -2.5240843821517815e-04  -2.9803489032747361e-04  -3.5492676364220349e-04  3.2440088404677944e-04  4.6842423323207966e-06  7.4156828265970235e-04  -4.5992350125184043e-04  -1.1957773767910645e-05  2.7084664691207148e-04  -1.9710272230124073e-04  -4.3471785270139272e-04  -9.8050295837462110e-05  3.1457844822615116e-04  8.1071574414723888e-04  1.3460752364956858e-03  1.9696575636773614e-03  2.6015268919868787e-03  3.3058593341778342e-03  4.0850544304345936e-03  4.8380921627234870e-03  5.6584539408142641e-03  6.5069506591162079e-03  7.3589074428650255e-03  8.2233557871872164e-03  8.6975776858685180e-03  9.2196033805968178e-03  1.0211843245803485e-02  1.0996613729517275e-02  1.1750289213994252e-02  1.2473216309840317e-02  1.3148208547427922e-02  1.3769884041083976e-02  1.4425536395235699e-02  1.5015277575042837e-02  1.5527340719482691e-02  1.5910371191187152e-02  1.6162315395677501e-02  1.6442174895839368e-02  1.6596228810390218e-02  1.6649600826740416e-02  1.6586503255295773e-02  1.6452244728163219e-02  1.6204339133421720e-02  1.5973461954732843e-02  1.5608927213241216e-02  1.5099159187931534e-02  1.4545668829854455e-02  1.3934641811140930e-02  1.3335745265668181e-02  1.2661568510942155e-02  1.1936659078702373e-02  1.1188584971177159e-02  1.0099550635654590e-02  9.5425674862702134e-03  9.0129515716921189e-03  7.8810355404916165e-03  7.2267596469802334e-03  6.1922786425875707e-03  5.5794199881615721e-03  4.7194722934105577e-03  3.9611201208943573e-03  3.2268467525047011e-03  2.4763449177819265e-03  1.8234765106099559e-03  1.2451623175070417e-03  7.0090686738951118e-04  2.1803730082150733e-04  -1.7456025632099954e-04  -4.5637200070939345e-04  -7.1637565537691951e-04  6.5965372335570629e-05  1.4629106499074873e-04  3.0061142075550357e-04  3.8024942449463672e-05  4.5029700428882852e-04  -2.3132722377832248e-04  -6.3708005334454281e-05  -3.5870657421577262e-04  -9.3219435202764278e-05  -2.7728493124201610e-04  -2.0491838454416515e-04  -3.7370162868418381e-04  -3.6293532993531485e-04  -1.4567067955832598e-06  -2.9100990502381235e-04  -1.4566381352028453e-04  2.6435219970894234e-04  1.8966634705074698e-04  1.7893887145162363e-04  3.4871215836475197e-04  4.1715712628472853e-04  2.4860069976019122e-04  4.7889000541730071e-04  7.5912738655187749e-04  5.4826588702837071e-04  9.9910233309095085e-04  1.0802811022789410e-03  1.0430316940973833e-03  1.2187688236954912e-03  1.2642261643622974e-03  1.2544629765042896e-03  1.2159554782932922e-03  1.3104075320259669e-03  1.3665304647237058e-03  1.3161299319498225e-03  1.3898338435037092e-03  1.4139981786705595e-03  1.4703775947770680e-03  1.4358604822167151e-03  1.3893932656092096e-03  1.3502355807209945e-03  1.3612077897938990e-03  1.4487255585712401e-03  1.4564659289898114e-03  1.3647580221192311e-03  1.3228585364734331e-03  1.3209281680663274e-03  1.2318043819708508e-03  1.2287221973073768e-03  1.2174439831864868e-03  1.1004752190520327e-03  1.0045376129739359e-03  9.9801036674813763e-04  9.5498900605046487e-04  8.6225734479538220e-04  7.8782748197101925e-04  7.2422407625969125e-04  6.1729267759683419e-04  5.6683018353251183e-04  5.0733128543304241e-04  3.9587158516792757e-04  3.4623598722874084e-04  2.7026118410344553e-04  1.8133010367724897e-04  1.0541812915370065e-04  1.6806741374697772e-05  -7.3800720902709955e-05  -1.4304109899440054e-04  -2.3924544687840723e-04  -3.1722648687849047e-04  -4.0362583598688726e-04  -4.7953924636267182e-04  -5.6325190158391426e-04  -6.2279189915629286e-04  -6.8007330473008785e-04  -7.4976670123337217e-04  -8.0201181375054106e-04  -9.0433299311960423e-04  -9.3777592587988184e-04  -9.9907701968582688e-04  -1.0764510062529812e-03  -1.1519258557628131e-03  -1.1842035534461422e-03  -1.2685523328765096e-03  -1.3567347207538367e-03  -1.3860142379155834e-03  -1.3799496688510296e-03  -1.3826039953193242e-03  -1.4237175809994746e-03  -1.4557691285753556e-03  -1.5248134448581862e-03  -1.5564861797442611e-03  -1.5397754435578675e-03  -1.6157112322651673e-03  -1.6746202475799439e-03  -1.6818398101203997e-03  -1.6790159011141009e-03  5.8057048520405649e-03  5.8006538085768923e-03  5.7831499614962745e-03  5.7594671795323377e-03  5.7175928095188440e-03  5.6553063169525021e-03  5.5826892075046220e-03  5.5161700307233214e-03  5.4352323307218743e-03  5.3349649197014376e-03  5.2315389429770185e-03  5.1206671243437356e-03  4.9788194344382048e-03  4.8326294595717337e-03  4.6731879869107091e-03  4.4973607792769266e-03  4.3095453179973009e-03  4.1119682714283179e-03  3.9265558875846629e-03  3.7184780519371480e-03  3.4913251610015224e-03  3.2524119906983625e-03  3.0172367933394362e-03  2.7464559258756887e-03  2.4950529494053419e-03  2.2239430532211397e-03  1.9547220580694680e-03  1.6985981431203196e-03  1.4033383805658786e-03  1.1061669080135554e-03  8.1503308990739571e-04  5.4267547973049811e-04  2.2867673395502472e-04  -6.9083180987088518e-05  -3.2429244481953169e-04  -7.2977798741715089e-04  -1.0073094558499006e-03  -1.2903636428768545e-03  -1.6345878281266689e-03  -1.9738636662531067e-03  -2.2750095858056736e-03  -2.5758208245403279e-03  -2.8943588625650915e-03  -3.2040845487587037e-03  -3.5199219403463694e-03  -3.8433275343411548e-03  -4.1444254169734351e-03  -4.4366601102161837e-03  -4.7482559015432834e-03  -5.0333023999215680e-03  -5.3240469943197566e-03  -5.5996308491191703e-03  -5.8596869346595245e-03  -6.1198493821017479e-03  -6.3665107053367583e-03  -6.6186658411348780e-03  -6.8759740253478635e-03  -7.0963210721789729e-03  -7.2931692801938850e-03  -7.4815198917149899e-03  -7.6444002905456526e-03  -7.7976504857303081e-03  -7.9272034847122398e-03  -8.0582316898327629e-03  -8.1464533390663667e-03  -8.2305107405592371e-03  -8.2876042094803051e-03  -8.3012131450680687e-03  -8.2810381435149110e-03  -8.2589460257064696e-03  -8.2357497021633818e-03  -8.2046992119245692e-03  -8.1719207223782050e-03  -8.0933844285386875e-03  -8.0262765945104154e-03  -7.9016317617384441e-03  -7.7336415420719432e-03  -7.5552128761648000e-03  -7.3862752318689297e-03  -7.1870596026019171e-03  -6.9507845719366714e-03  -6.6902868473744511e-03  -6.4199450884465520e-03  -6.0917879164802645e-03  -5.7635033099713339e-03  -5.4063828986024801e-03  -5.0148606241751372e-03  -4.5715452584450846e-03  -4.1618805931346809e-03  -3.7471183398015279e-03  -3.2719156164467225e-03  -2.8140843088178959e-03  -2.3179913638684759e-03  -1.8365171073480631e-03  -1.3714700765965146e-03  -9.1764766011372947e-04  -4.2691453373532072e-04  5.5353428375374530e-05  5.7216199407082182e-04  1.0882348622471786e-03  1.6275439565243254e-03  2.1545803561143092e-03  2.6701519790731823e-03  3.2443595564839128e-03  3.8077290342858022e-03  4.3985015988393297e-03  4.9983161371871376e-03  5.5748579808403203e-03  6.1559783695566573e-03  6.8341675451667853e-03  7.4022067934068113e-03  8.1376970230703817e-03  8.8913409073229990e-03  9.1580215858435444e-03  9.6179193234504183e-03  1.0151854254812827e-02  1.0685042821516826e-02  1.1205787074323004e-02  1.1724118317197033e-02  1.2216250220419840e-02  1.2598053176870088e-02  1.3023099446864942e-02  1.3444764856616579e-02  1.3810910450794925e-02  1.4096085816277847e-02  1.4318780500094998e-02  1.4466056131288830e-02  1.4535216706351911e-02  1.4587019628035790e-02  1.4602255878186933e-02  1.4589021913705870e-02  1.4540493639130844e-02  1.4470092308664638e-02  1.4349671225968185e-02  1.4111851277971722e-02  1.3807042406206137e-02  1.3448848659732185e-02  1.3023043881325464e-02  1.2516516055804073e-02  1.2111243037857430e-02  1.1603596980708893e-02  1.1066801311483567e-02  1.0519462090905339e-02  9.9702961059195058e-03  9.3552595322159288e-03  8.8946571509659483e-03  8.3905347280590400e-03  7.9468437415184529e-03  7.5470223797917471e-03  7.0176156076741545e-03  6.3260037893843974e-03  5.6323723233186167e-03  5.0199419903057298e-03  4.3565763885121843e-03  3.7304322419939779e-03  3.1635102420762254e-03  2.6302827411331603e-03  2.0604926607492770e-03  1.5343483141404359e-03  1.0056759335653268e-03  4.8756074401187240e-04  1.1888378289479598e-06  -5.0470600494630915e-04  -9.7125557075517302e-04  -1.4491745308599304e-03  -1.9029628843264190e-03  -2.3711273123247704e-03  -2.8890511133152917e-03  -3.3709468710972595e-03  -3.7770598518360871e-03  -4.2344025880539527e-03  -4.6638858442463226e-03  -5.0856804173837599e-03  -5.4485876255828966e-03  -5.7936890421909594e-03  -6.1007841086735412e-03  -6.4259506605527034e-03  -6.7235063562322015e-03  -6.9752619629123895e-03  -7.1996567051298612e-03  -7.4015592922767413e-03  -7.5737030132518876e-03  -7.7248450521632001e-03  -7.8971694120305615e-03  -8.0303342106495361e-03  -8.1217942309365441e-03  -8.1958444572286238e-03  -8.2586783100690227e-03  -8.2972337171100599e-03  -8.3151820051770124e-03  -8.3471164738995168e-03  -8.3695377119047485e-03  -8.3341106835979097e-03  -8.2616718717892206e-03  -8.1575536510211013e-03  -8.0603550316466419e-03  -7.9428486060173307e-03  -7.7931468015175771e-03  -7.6209574478343202e-03  -7.4519271280590839e-03  -7.2831586998233491e-03  -7.0906231506969834e-03  -6.8772010465381929e-03  -6.6615972747409609e-03  -6.4346968095307395e-03  -6.1737926192033978e-03  -5.8682799024587689e-03  -5.6558354506748201e-03  -5.4100914333349978e-03  -5.1398900911363791e-03  -4.8607459612996342e-03  -4.5484245280920620e-03  -4.2290350402117895e-03  -3.9352617444397484e-03  -3.6388057365527716e-03  -3.3227070886211766e-03  -2.9778298723212738e-03  -2.6464520513258109e-03  -2.3222866271101661e-03  -2.0196544235375458e-03  -1.7107777943779795e-03  -1.4199229971933317e-03  -1.1007678020329985e-03  -8.0298654454784800e-04  -4.0358935967913249e-04  -9.1718365288501194e-05  2.5081770618202168e-04  5.7567941625800317e-04  7.9166838048430241e-04  1.1396234127969806e-03  1.4150449448190677e-03  1.7280674116618604e-03  1.9468332561633373e-03  2.2456595757757024e-03  2.5402640764865024e-03  2.7930792541515075e-03  3.0416420500295306e-03  3.2727775473757824e-03  3.5133088866642972e-03  3.7299031472322877e-03  3.9436240907408330e-03  4.1464588434414534e-03  4.3488310439526723e-03  4.5478251046766113e-03  4.7160926884328384e-03  4.8662845177476757e-03  5.0012396971240835e-03  5.1389143534595217e-03  5.2587859427650962e-03  5.3794581536840518e-03  5.4833164007176112e-03  5.5715186217124568e-03  5.6492368096578652e-03  5.7097763768475538e-03  5.7595905042057928e-03  5.7906909417293597e-03  9.9923216687144902e-04  9.3823240485256206e-04  9.3611675232479585e-04  4.0165570712372899e-04  3.5252533691263220e-04  3.6744915195038554e-04  2.3812152305576433e-04  -4.4278598644567293e-05  -9.9470619608567587e-05  -4.0562373479067804e-04  -4.6771893501827076e-04  -6.5100599970782701e-04  -6.4297901016530969e-04  -8.4043045127416927e-04  -9.4127157006691461e-04  -8.8796349461996605e-04  -1.0484144312892505e-03  -1.6315135509208602e-03  -9.1777785686218572e-05  -1.9571282236255229e-03  -8.9250437535309782e-05  -1.1196930923305238e-04  -4.8548846408521169e-05  4.6499701579917454e-03  4.0661216193329450e-03  4.7492955387930195e-03  4.1518037179115643e-03  -2.3675037797367556e-03  -4.2617300998294454e-05  -1.3973539808067446e-05  3.0394556196120803e-03  -2.8553036064538442e-03  2.6967616285671929e-03  6.3323018249575330e-05  5.0190771752660563e-05  1.4658704487913548e-03  1.1516835529872421e-03  -4.4571657002498140e-04  -3.1456145481604221e-03  -4.2289693616181308e-04  -3.8354076852363100e-04  4.8102714807335177e-03  7.4644081284747866e-05  1.0309901018304288e-04  -2.8628003912721441e-04  -7.2258602771330647e-04  -9.0448672039841380e-04  -2.6984617720578162e-03  -2.5356785072110799e-04  -1.0237042887912068e-04  -9.0454328381876499e-05  -3.0044256535256835e-03  1.0086540772327187e-04  1.1411753643424825e-04  3.4934472872895340e-03  4.6189067121106733e-03  -4.0221885262732302e-03  9.2378143500365442e-05  1.1192908386144873e-04  2.2891732917797977e-04  -2.2622888277099530e-03  4.6469309847100076e-03  3.7681912055152721e-03  -2.9814270144197124e-03  2.3026505473290166e-03  4.1467029122738998e-04  9.4212135315902253e-05  7.7485217642042485e-05  -4.3430598097478164e-03  2.2018981175595364e-04  -4.8130419855787476e-03  2.3897894962916109e-03  -3.9118396653154775e-03  -4.5578470979810905e-03  2.2728721291074476e-04  -1.8835179943544039e-03  -5.1573253763701450e-03  6.1994526917749648e-04  1.0023058132927107e-03  3.0100325459776344e-04  -4.4315082643438424e-05  -1.8212031970136084e-04  -3.1943378146895678e-03  3.2164358266050251e-04  8.6347429572848373e-04  -5.5700410976150415e-03  -5.8509552613556807e-03  -5.5964496122927112e-03  3.2388301517071561e-04  -1.1026996167479253e-04  -1.4241550991249202e-03  3.1706753936141266e-04  -3.7679746759851271e-03  6.6645093766343254e-04  -5.3267626371023523e-03  3.1859822654124812e-04  2.8684566303367899e-04  1.7799272570027494e-04  -8.1450289201921879e-05  2.2886342280492931e-05  -5.6449059607531762e-03  -8.1909822843832347e-04  -6.7273033001489298e-04  -7.9373934859212480e-04  -6.5797563237092105e-03  -5.4605991573401270e-04  -7.5399084603794322e-04  -6.7707464676503026e-04  -6.9119505221553147e-03  -4.6198173908874499e-04  -6.1084304569568109e-04  3.0443840832924847e-03  -7.6943782217329959e-04  -4.6068190420207027e-03  -4.5300938046298521e-03  1.5152799957280377e-04  2.8966247900613544e-03  1.9849891616020279e-04  -3.1524709486801264e-04  -6.2983625034578579e-03  -7.5686295057704111e-03  -2.5194268433764136e-04  3.2390717661097239e-04  4.6382011784133126e-03  -6.6387900792770225e-04  -5.4924449305539290e-03  -4.0803945576276942e-03  6.5856618107341871e-04  8.9170381712390579e-05  -1.4884789034781364e-04  5.2772539613656355e-03  -1.6558159292528614e-04  4.1558433236020764e-04  1.5927175912744103e-04  5.3296825347133809e-03  -7.5883389112711879e-03  5.2263317270682206e-03  5.1078872769767776e-03  -3.4464182972548285e-03  -2.4434766541536849e-04  -3.0606747402503714e-04  -4.0377544710200157e-04  3.4462937220313722e-03  1.5091736656938513e-05  4.8147161222399319e-03  4.4176210057520300e-03  2.8987314275344514e-04  2.0950527976197858e-03  5.9204330924298300e-04  -5.5240711489611745e-04  1.6233774623584674e-04  -1.3574305764984444e-04  2.0869571369261706e-04  -4.1152488564904236e-04  2.4981001989335719e-04  1.5299199871336196e-04  4.2511862109230764e-03  2.0825929958663580e-04  3.4289158844218279e-05  -1.1021587815958322e-04  2.8133207263009776e-04  9.4089476173381012e-05  -6.1649711122475296e-05  -6.3686945881080911e-03  1.3423717835012179e-03  2.7520968826393296e-03  3.7651384226901449e-03  3.3033047940851912e-03  2.0939465530197393e-04  3.2770935629042350e-03  2.3465222340627962e-03  2.4134788983843755e-04  -6.0694575944478040e-04  4.9922545883652253e-05  -3.1374901178555332e-03  -7.3718836130551050e-03  2.0701485492786675e-04  2.8116072241875581e-04  2.1453532801894168e-03  7.6690264390975431e-06  2.1568041076530301e-04  3.3783114265169631e-04  7.3013811431241752e-05  1.6670334590660819e-03  2.2669648258115500e-03  1.8391976377650948e-04  1.2741294164565983e-03  1.3585429177326272e-03  1.9742735498875794e-03  -7.4604200228840980e-03  -2.5848262017244155e-03  -5.8148933812571234e-05  2.9557063082601669e-04  2.9140281784984182e-03  3.0950038553879578e-03  -1.8655386979049885e-04  -1.0024040949174519e-03  6.6671117203045928e-04  2.9207072364693925e-03  5.1064992758637725e-05  -7.8053461018601380e-05  2.0612561610813076e-03  3.2742762304749221e-04  -2.2167033061290661e-03  -7.9614941859737780e-04  2.0878281341920896e-03  2.7784810283674202e-04  1.8051112938339414e-03  -8.6342699229445899e-04  5.9230198343797868e-05  -7.7975541446637054e-03  -7.2199293374150975e-04  4.2778543055628840e-04  5.5084967688204755e-04  1.5023226008642663e-04  1.6401090043403534e-05  -1.0160006775252301e-03  1.2611472623907125e-03  1.4551538372238197e-04  -1.6950476267133822e-03  9.0966805003285913e-04  3.9367294240270873e-04  5.6075189938635181e-04  1.6875352330211288e-05  -9.5236768425884270e-04  -1.0894325711793850e-03  -7.3913401340682265e-04  4.8990135917235285e-03  2.4868659874039793e-03  -7.6999128550023273e-03  1.1166854784157735e-05  -2.0108869609509507e-04  5.2041952002582249e-03  -8.7984665111194170e-04  5.7008891396788820e-04  3.1422770578932814e-05  -3.4329978450766210e-04  -6.1254017079422912e-05  -8.3673992403868538e-05  -1.3870540870798323e-03  -7.3594727679038791e-03  -7.5185638912409120e-04  2.8643112970032406e-03  -4.8859074137844541e-04  5.5141826042881268e-03  3.9928249885366794e-03  -7.5835688631027791e-03  4.2616163070482939e-04  -7.3623838414209660e-03  -3.5633557495031300e-04  -2.0142127998820994e-03  -1.1118794714075268e-03  -9.7781493821425284e-04  3.7867089311387741e-05  -6.5118303083887209e-04  -3.9893118045365158e-04  3.9843761287321463e-05  -4.2494023934782179e-04  -6.1842844060618161e-04  -7.6337339967250369e-03  6.5277049860221290e-04  6.1965361958857333e-04  6.8657826881873818e-04  6.2374882963005555e-04  -6.5048583977159625e-04  2.9155832766356596e-04  -3.8455437690482026e-03  -1.2136459216150898e-03  -7.3304921389367086e-03  -2.1639535833074641e-03  -1.6843171433743791e-03  -1.4834932121750375e-03  -6.4539812057228278e-04  -6.4377369703428635e-04  -7.1808357319129061e-03  9.3346592952030770e-04  -2.4370488890655844e-03  7.2686249858099517e-05  -7.4657203146732019e-03  -1.0386038174870636e-04  -9.1516442235174732e-05  -2.9150690850761346e-04  1.7427622258484168e-04  -7.7116331254349409e-03  -3.4192754792512848e-03  -2.9405861153100502e-04  -7.8523689217897699e-04  -1.1929471298051337e-04  -9.7677856058955148e-05  8.1904946159515286e-05  -1.9687635063328651e-03  -7.7247271473512022e-04  -4.1005817115716591e-03  -9.7909341699395011e-04  -2.7039884683941412e-03  8.6408181945989000e-05  -3.6902560079342625e-03  6.2986010648611083e-04  4.1050235130250107e-03  5.9924257003667828e-04  -2.6710967691847007e-03  -4.8317109397817321e-05