<?xml version="1.0"?>
<VTKFile type="UnstructuredGrid"  version="0.1"  >
<UnstructuredGrid>
<Piece  NumberOfPoints="2401" NumberOfCells="4608">
<Points>
<DataArray  type="Float64"  NumberOfComponents="3"  format="ascii">0 0 0  0.001070538380698371 0 0  0.004277569313095364 0 0  0.009607359798386061 0 0  0.01703708685546806 0 0  0.02653493525245065 0 0  0.03806023374436157 0 0  0.05156362923366253 0 0  0.06698729810778931 0 0  0.08426519384873815 0 0  0.1033233298543955 0 0  0.1240800962605269 0 0  0.1464466094067445 0 0  0.1703270924499866 0 0  0.1956192854956637 0 0  0.2222148834902257 0 0  0.2500000000000299 0 0  0.2788556548905322 0 0  0.308658283817491 0 0  0.339280267348458 0 0  0.3705904774487813 0 0  0.4024548389919803 0 0  0.4347369038900211 0 0  0.467298435384978 0 0  0.5000000000000517 0 0  0.5327015646151253 0 0  0.5652630961100813 0 0  0.5975451610081212 0 0  0.6294095225513188 0 0  0.6607197326516399 0 0  0.6913417161826045 0 0  0.7211443451095605 0 0  0.7500000000000597 0 0  0.7777851165098603 0 0  0.8043807145044185 0 0  0.829672907550091 0 0  0.8535533905933287 0 0  0.8759199037395413 0 0  0.8966766701456674 0 0  0.9157348061513193 0 0  0.9330127018922625 0 0  0.9484363707663832 0 0  0.961939766255678 0 0  0.9734650647475827 0 0  0.9829629131445586 0 0  0.9903926402016341 0 0  0.9957224306869181 0 0  0.9989294616193084 0 0  1 0 0  0 0.02083333333333333 0  0.001070538380698371 0.02083333333333333 0  0.004277569313095364 0.02083333333333333 0  0.009607359798386061 0.02083333333333333 0  0.01703708685546806 0.02083333333333333 0  0.02653493525245065 0.02083333333333333 0  0.03806023374436157 0.02083333333333333 0  0.05156362923366253 0.02083333333333333 0  0.06698729810778931 0.02083333333333333 0  0.08426519384873815 0.02083333333333333 0  0.1033233298543955 0.02083333333333333 0  0.1240800962605269 0.02083333333333333 0  0.1464466094067445 0.02083333333333333 0  0.1703270924499866 0.02083333333333333 0  0.1956192854956637 0.02083333333333333 0  0.2222148834902257 0.02083333333333333 0  0.2500000000000299 0.02083333333333333 0  0.2788556548905322 0.02083333333333333 0  0.308658283817491 0.02083333333333333 0  0.339280267348458 0.02083333333333333 0  0.3705904774487813 0.02083333333333333 0  0.4024548389919803 0.02083333333333333 0  0.4347369038900211 0.02083333333333333 0  0.467298435384978 0.02083333333333333 0  0.5000000000000517 0.02083333333333333 0  0.5327015646151253 0.02083333333333333 0  0.5652630961100813 0.02083333333333333 0  0.5975451610081212 0.02083333333333333 0  0.6294095225513188 0.02083333333333333 0  0.6607197326516399 0.02083333333333333 0  0.6913417161826045 0.02083333333333333 0  0.7211443451095605 0.02083333333333333 0  0.7500000000000597 0.02083333333333333 0  0.7777851165098603 0.02083333333333333 0  0.8043807145044185 0.02083333333333333 0  0.829672907550091 0.02083333333333333 0  0.8535533905933287 0.02083333333333333 0  0.8759199037395413 0.02083333333333333 0  0.8966766701456674 0.02083333333333333 0  0.9157348061513193 0.02083333333333333 0  0.9330127018922625 0.02083333333333333 0  0.9484363707663832 0.02083333333333333 0  0.961939766255678 0.02083333333333333 0  0.9734650647475827 0.02083333333333333 0  0.9829629131445586 0.02083333333333333 0  0.9903926402016341 0.02083333333333333 0  0.9957224306869181 0.02083333333333333 0  0.9989294616193084 0.02083333333333333 0  1 0.02083333333333333 0  0 0.04166666666666666 0  0.001070538380698371 0.04166666666666666 0  0.004277569313095364 0.04166666666666666 0  0.009607359798386061 0.04166666666666666 0  0.01703708685546806 0.04166666666666666 0  0.02653493525245065 0.04166666666666666 0  0.03806023374436157 0.04166666666666666 0  0.05156362923366253 0.04166666666666666 0  0.06698729810778931 0.04166666666666666 0  0.08426519384873815 0.04166666666666666 0  0.1033233298543955 0.04166666666666666 0  0.1240800962605269 0.04166666666666666 0  0.1464466094067445 0.04166666666666666 0  0.1703270924499866 0.04166666666666666 0  0.1956192854956637 0.04166666666666666 0  0.2222148834902257 0.04166666666666666 0  0.2500000000000299 0.04166666666666666 0  0.2788556548905322 0.04166666666666666 0  0.308658283817491 0.04166666666666666 0  0.339280267348458 0.04166666666666666 0  0.3705904774487813 0.04166666666666666 0  0.4024548389919803 0.04166666666666666 0  0.4347369038900211 0.04166666666666666 0  0.467298435384978 0.04166666666666666 0  0.5000000000000517 0.04166666666666666 0  0.5327015646151253 0.04166666666666666 0  0.5652630961100813 0.04166666666666666 0  0.5975451610081212 0.04166666666666666 0  0.6294095225513188 0.04166666666666666 0  0.6607197326516399 0.04166666666666666 0  0.6913417161826045 0.04166666666666666 0  0.7211443451095605 0.04166666666666666 0  0.7500000000000597 0.04166666666666666 0  0.7777851165098603 0.04166666666666666 0  0.8043807145044185 0.04166666666666666 0  0.829672907550091 0.04166666666666666 0  0.8535533905933287 0.04166666666666666 0  0.8759199037395413 0.04166666666666666 0  0.8966766701456674 0.04166666666666666 0  0.9157348061513193 0.04166666666666666 0  0.9330127018922625 0.04166666666666666 0  0.9484363707663832 0.04166666666666666 0  0.961939766255678 0.04166666666666666 0  0.9734650647475827 0.04166666666666666 0  0.9829629131445586 0.04166666666666666 0  0.9903926402016341 0.04166666666666666 0  0.9957224306869181 0.04166666666666666 0  0.9989294616193084 0.04166666666666666 0  1 0.04166666666666666 0  0 0.0625 0  0.001070538380698371 0.0625 0  0.004277569313095364 0.0625 0  0.009607359798386061 0.0625 0  0.01703708685546806 0.0625 0  0.02653493525245065 0.0625 0  0.03806023374436157 0.0625 0  0.05156362923366253 0.0625 0  0.06698729810778931 0.0625 0  0.08426519384873815 0.0625 0  0.1033233298543955 0.0625 0  0.1240800962605269 0.0625 0  0.1464466094067445 0.0625 0  0.1703270924499866 0.0625 0  0.1956192854956637 0.0625 0  0.2222148834902257 0.0625 0  0.2500000000000299 0.0625 0  0.2788556548905322 0.0625 0  0.308658283817491 0.0625 0  0.339280267348458 0.0625 0  0.3705904774487813 0.0625 0  0.4024548389919803 0.0625 0  0.4347369038900211 0.0625 0  0.467298435384978 0.0625 0  0.5000000000000517 0.0625 0  0.5327015646151253 0.0625 0  0.5652630961100813 0.0625 0  0.5975451610081212 0.0625 0  0.6294095225513188 0.0625 0  0.6607197326516399 0.0625 0  0.6913417161826045 0.0625 0  0.7211443451095605 0.0625 0  0.7500000000000597 0.0625 0  0.7777851165098603 0.0625 0  0.8043807145044185 0.0625 0  0.829672907550091 0.0625 0  0.8535533905933287 0.0625 0  0.8759199037395413 0.0625 0  0.8966766701456674 0.0625 0  0.9157348061513193 0.0625 0  0.9330127018922625 0.0625 0  0.9484363707663832 0.0625 0  0.961939766255678 0.0625 0  0.9734650647475827 0.0625 0  0.9829629131445586 0.0625 0  0.9903926402016341 0.0625 0  0.9957224306869181 0.0625 0  0.9989294616193084 0.0625 0  1 0.0625 0  0 0.08333333333333333 0  0.001070538380698371 0.08333333333333333 0  0.004277569313095364 0.08333333333333333 0  0.009607359798386061 0.08333333333333333 0  0.01703708685546806 0.08333333333333333 0  0.02653493525245065 0.08333333333333333 0  0.03806023374436157 0.08333333333333333 0  0.05156362923366253 0.08333333333333333 0  0.06698729810778931 0.08333333333333333 0  0.08426519384873815 0.08333333333333333 0  0.1033233298543955 0.08333333333333333 0  0.1240800962605269 0.08333333333333333 0  0.1464466094067445 0.08333333333333333 0  0.1703270924499866 0.08333333333333333 0  0.1956192854956637 0.08333333333333333 0  0.2222148834902257 0.08333333333333333 0  0.2500000000000299 0.08333333333333333 0  0.2788556548905322 0.08333333333333333 0  0.308658283817491 0.08333333333333333 0  0.339280267348458 0.08333333333333333 0  0.3705904774487813 0.08333333333333333 0  0.4024548389919803 0.08333333333333333 0  0.4347369038900211 0.08333333333333333 0  0.467298435384978 0.08333333333333333 0  0.5000000000000517 0.08333333333333333 0  0.5327015646151253 0.08333333333333333 0  0.5652630961100813 0.08333333333333333 0  0.5975451610081212 0.08333333333333333 0  0.6294095225513188 0.08333333333333333 0  0.6607197326516399 0.08333333333333333 0  0.6913417161826045 0.08333333333333333 0  0.7211443451095605 0.08333333333333333 0  0.7500000000000597 0.08333333333333333 0  0.7777851165098603 0.08333333333333333 0  0.8043807145044185 0.08333333333333333 0  0.829672907550091 0.08333333333333333 0  0.8535533905933287 0.08333333333333333 0  0.8759199037395413 0.08333333333333333 0  0.8966766701456674 0.08333333333333333 0  0.9157348061513193 0.08333333333333333 0  0.9330127018922625 0.08333333333333333 0  0.9484363707663832 0.08333333333333333 0  0.961939766255678 0.08333333333333333 0  0.9734650647475827 0.08333333333333333 0  0.9829629131445586 0.08333333333333333 0  0.9903926402016341 0.08333333333333333 0  0.9957224306869181 0.08333333333333333 0  0.9989294616193084 0.08333333333333333 0  1 0.08333333333333333 0  0 0.1041666666666667 0  0.001070538380698371 0.1041666666666667 0  0.004277569313095364 0.1041666666666667 0  0.009607359798386061 0.1041666666666667 0  0.01703708685546806 0.1041666666666667 0  0.02653493525245065 0.1041666666666667 0  0.03806023374436157 0.1041666666666667 0  0.05156362923366253 0.1041666666666667 0  0.06698729810778931 0.1041666666666667 0  0.08426519384873815 0.1041666666666667 0  0.1033233298543955 0.1041666666666667 0  0.1240800962605269 0.1041666666666667 0  0.1464466094067445 0.1041666666666667 0  0.1703270924499866 0.1041666666666667 0  0.1956192854956637 0.1041666666666667 0  0.2222148834902257 0.1041666666666667 0  0.2500000000000299 0.1041666666666667 0  0.2788556548905322 0.1041666666666667 0  0.308658283817491 0.1041666666666667 0  0.339280267348458 0.1041666666666667 0  0.3705904774487813 0.1041666666666667 0  0.4024548389919803 0.1041666666666667 0  0.4347369038900211 0.1041666666666667 0  0.467298435384978 0.1041666666666667 0  0.5000000000000517 0.1041666666666667 0  0.5327015646151253 0.1041666666666667 0  0.5652630961100813 0.1041666666666667 0  0.5975451610081212 0.1041666666666667 0  0.62
[...]
<PointData  Scalars="f_4296094"> 
<DataArray  type="Float64"  Name="f_4296094"  format="ascii">1.0000000000000016e+00  9.9915391315324031e-01  9.9661910349151617e-01  9.9240532143593829e-01  9.8652741424898871e-01  9.7900384069316182e-01  9.6985433426280931e-01  9.5909884368305498e-01  9.4676396973045329e-01  9.3287633438328976e-01  9.1746320258870773e-01  9.0055591237152000e-01  8.8218812166646710e-01  8.6239423738020760e-01  8.4125541542165316e-01  8.1884649122172981e-01  7.9514288314661752e-01  7.7018805947022029e-01  7.4409011171524309e-01  7.1689437878945450e-01  6.8869748816041565e-01  6.5960825243586296e-01  6.2966916525468541e-01  5.9897296507149889e-01  5.6760461025620401e-01  5.3560100949384359e-01  5.0310480320503237e-01  4.7028978583141362e-01  4.3725455278403724e-01  4.0414051589479294e-01  3.7111970249550547e-01  3.3836161213371113e-01  3.0604020255851883e-01  2.7433196513372488e-01  2.4343589428012513e-01  2.1355907520737183e-01  1.8488376604410103e-01  1.5760823839207980e-01  1.3194479729291025e-01  1.0809001918526930e-01  8.6236878522143262e-02  6.6569333712508130e-02  4.9240020596549749e-02  3.4378575716055418e-02  2.2092328367097215e-02  1.2463565696438382e-02  5.5502203265700555e-03  1.3890984902949512e-03  -1.2435776139172965e-15  1.0000000000000004e+00  9.9915517503496953e-01  9.9662404579162966e-01  9.9241611225879534e-01  9.8654550672710517e-01  9.7902951249819192e-01  9.6988765338651939e-01  9.5914024945736942e-01  9.4680873064438742e-01  9.3291808906586182e-01  9.1749934316890269e-01  9.0058319332184844e-01  8.8220967388988469e-01  8.6240649128699665e-01  8.4123865698056322e-01  8.1879896629257642e-01  7.9507378045482568e-01  7.7008821015351736e-01  7.4396630688723442e-01  7.1674461157348057e-01  6.8851127381295618e-01  6.5939704437968960e-01  6.2944295970183772e-01  5.9872741631154125e-01  5.6735564966956320e-01  5.3535501704713817e-01  5.0286074869455932e-01  4.7006306179696900e-01  4.3705643025987512e-01  4.0397203610615173e-01  3.7097906951309811e-01  3.3825122808177832e-01  3.0596495250512556e-01  2.7429476282306586e-01  2.4342884868540260e-01  2.1358001888012551e-01  1.8493261425518812e-01  1.5767981990876936e-01  1.3203049656475621e-01  1.0818233157170518e-01  8.6325937598368666e-02  6.6649289582410343e-02  4.9307482063091053e-02  3.4430625840152801e-02  2.2128134219176244e-02  1.2484571957731186e-02  5.5597356057541496e-03  1.3914899029698231e-03  -8.9531654041048432e-16  9.9999999999999989e-01  9.9915761685945104e-01  9.9663353582255487e-01  9.9243647337261875e-01  9.8657942319397085e-01  9.7907800093027764e-01  9.6994950447772721e-01  9.5921305479470131e-01  9.4688790048931371e-01  9.3299471049327598e-01  9.1756298362658761e-01  9.0063343960457853e-01  8.8223507836280424e-01  8.6239660143413865e-01  8.4116816615820789e-01  8.1866049097160143e-01  7.9487402736124146e-01  7.6981936579403476e-01  7.4363220444635958e-01  7.1634623640929174e-01  6.8803642751930549e-01  6.5885485856803871e-01  6.2885156432381506e-01  5.9809377245971751e-01  5.6670508892261218e-01  5.3471056313457588e-01  5.0222861043296496e-01  4.6946229512439375e-01  4.3651004646097835e-01  4.0349722412024253e-01  3.7058381819232644e-01  3.3794008960179484e-01  3.0574147851559924e-01  2.7416174454180559e-01  2.4337861414165668e-01  2.1359303199838958e-01  1.8500076671268240e-01  1.5779294859590076e-01  1.3217325857522796e-01  1.0833933562315864e-01  8.6480263814452465e-02  6.6785414791805664e-02  4.9419982479617597e-02  3.4516052014474635e-02  2.2186145039126779e-02  1.2518368391240309e-02  5.5750339286850092e-03  1.3953450446350104e-03  -6.9803265690696892e-16  1.0000000000000007e+00  9.9916012100453522e-01  9.9664306634172650e-01  9.9245634364419066e-01  9.8661139585952939e-01  9.7912212420970390e-01  9.7000377127833959e-01  9.5927296442176291e-01  9.4694685655525501e-01  9.3304573470574714e-01  9.1759651142406062e-01  9.0064181859961534e-01  8.8220654246039898e-01  8.6231331724591798e-01  8.4100805684921287e-01  8.1841103093531564e-01  7.9453480613660898e-01  7.6939010238883099e-01  7.4310846451025392e-01  7.1573231456171482e-01  6.8733091536450919e-01  6.5806411563336054e-01  6.2799289837195216e-01  5.9718066199268693e-01  5.6575984532752110e-01  5.3376599648985068e-01  5.0130779811323356e-01  4.6858051309027215e-01  4.3569315920373547e-01  4.0277288869855715e-01  3.6996744069264648e-01  3.3743985474683519e-01  3.0536434095958881e-01  2.7390251205725291e-01  2.4322553837827535e-01  2.1352612241453209e-01  1.8500053273573053e-01  1.5784211129962439e-01  1.3225496584382393e-01  1.0843969328040062e-01  8.6586161103340817e-02  6.6883723238504111e-02  4.9502821365094700e-02  3.4580845095303410e-02  2.2231865446247851e-02  1.2546201325136366e-02  5.5881577005716492e-03  1.3987441466864615e-03  -7.3934082745703415e-16  9.9999999999999989e-01  9.9916223588419217e-01  9.9665097332643537e-01  9.9247211697305304e-01  9.8663484094089526e-01  9.7915076383071642e-01  9.7003306985011140e-01  9.5929628687583324e-01  9.4695684816365744e-01  9.3303598833257773e-01  9.1755949865262332e-01  9.0056735906550334e-01  8.8208180839345451e-01  8.6212055538503030e-01  8.4072982785232242e-01  8.1802931589948313e-01  7.9404557403296239e-01  7.6879848152107044e-01  7.4240845487575247e-01  7.1492842108552057e-01  6.8642965907959497e-01  6.5707042588584996e-01  6.2692298566968807e-01  5.9605196808913163e-01  5.6459035090756660e-01  5.3259193296772622e-01  5.0016328670131915e-01  4.6747600061999239e-01  4.3465514621776530e-01  4.0183299804510597e-01  3.6914577774008694e-01  3.3674801185121056e-01  3.0481119381733895e-01  2.7348034949595690e-01  2.4291699195099431e-01  2.1331245769580670e-01  1.8485994780936110e-01  1.5775508371108637e-01  1.3220629312668117e-01  1.0842024816550877e-01  8.6589314505865544e-02  6.6898558463564906e-02  4.9519928501533167e-02  3.4596797572491032e-02  2.2245066090368845e-02  1.2555403670522000e-02  5.5929864281251207e-03  1.4000871924231386e-03  -8.3736884013377843e-16  9.9999999999999944e-01  9.9916342860746177e-01  9.9665494211716132e-01  9.9247851580957702e-01  9.8664101576061580e-01  9.7915198542636461e-01  9.7002317547716843e-01  9.5926813180398829e-01  9.4690273295166827e-01  9.3294884682637125e-01  9.1743124959675371e-01  9.0038557938207509e-01  8.8183488679353383e-01  8.6179468339564491e-01  8.4031270938001179e-01  8.1750045577943498e-01  7.9339981956462435e-01  7.6804320799447878e-01  7.4153955995357346e-01  7.1395038655876408e-01  6.8535335559303234e-01  6.5590051901025914e-01  6.2567404553300254e-01  5.9474321137468622e-01  5.6323804880089856e-01  5.3123181517807805e-01  4.9883341522116564e-01  4.6618743372205063e-01  4.3342979018685529e-01  4.0070112913981332e-01  3.6812893786590872e-01  3.3585970113884378e-01  3.0405860329572854e-01  2.7285937709582531e-01  2.4241124740218595e-01  2.1290439691061783e-01  1.8453172274149776e-01  1.5749068365448660e-01  1.3199412780065753e-01  1.0825490473320638e-01  8.6469377071362138e-02  6.6815279432386354e-02  4.9463416527961629e-02  3.4561638597441886e-02  2.2226362114316951e-02  1.2547346188633323e-02  5.5903973109939073e-03  1.3996066956390464e-03  -8.3552986836650327e-16  1.0000000000000004e+00  9.9916390056296145e-01  9.9665599373116931e-01  9.9247800178400836e-01  9.8663412648480608e-01  9.7913173908947682e-01  9.6998110266146598e-01  9.5919473394274524e-01  9.4678799936105051e-01  9.3278264965389435e-01  9.1720670991466213e-01  9.0008784780706896e-01  8.8145455595813005e-01  8.6132461294724116e-01  8.3974604323417168e-01  8.1681786372381993e-01  7.9259597798756265e-01  7.6712594953862601e-01  7.4050746258487588e-01  7.1280883103805903e-01  6.8411526349255158e-01  6.5457060359737740e-01  6.2426483589831017e-01  5.9327448584435361e-01  5.6172523367922078e-01  5.2970891897336836e-01  4.9733460948322988e-01  4.6473444297939198e-01  4.3203755547761385e-01  3.9939281778136398e-01  3.6692576621284634e-01  3.3477443090398057e-01  3.0309477590234762e-01  2.7201708075573289e-01  2.4168191147319629e-01  2.1227568994732196e-01  1.8399269916432826e-01  1.5703247112982846e-01  1.3161026587993488e-01  1.0794247930607505e-01  8.6227679176773694e-02  6.6638508668496563e-02  4.9337314060801975e-02  3.4477781920043513e-02  2.2177069909347220e-02  1.2522976066547287e-02  5.5810973565426540e-03  1.3975646632532542e-03  -7.0628878698772409e-16  1.0000000000000007e+00  9.9916314814889129e-01  9.9665221154169092e-01  9.9246688129620930e-01  9.8660882317745568e-01  9.7908306603128092e-01  9.6989841246049036e-01  9.5906735928923448e-01  9.4660648257038327e-01  9.3253762366220183e-01  9.1688593556654319e-01  8.9967733972720754e-01  8.8094273997878569e-01  8.6071115498332218e-01  8.3902962963456795e-01  8.1598306742367233e-01  7.9163788466188367e-01  7.6605231096772142e-01  7.3931932073094486e-01  7.1151309963721787e-01  6.8272575973106164e-01  6.5309203382367420e-01  6.2270793149553982e-01  5.9165870053624314e-01  5.6006570203227990e-01  5.2803479502783057e-01  4.9567707414999035e-01  4.6311993173552407e-01  4.3048703845418246e-01  3.9791658399426444e-01  3.6554282401321470e-01  3.3349635955110368e-01  3.0192037945668060e-01  2.7095022543417091e-01  2.4072387902379280e-01  2.1142271386058620e-01  1.8324213060737343e-01  1.5638382559624561e-01  1.3106258374112797e-01  1.0749286090644056e-01  8.5871713516904882e-02  6.6372237840418818e-02  4.9151968826003992e-02  3.4355518907685664e-02  2.2102458749084036e-02  1.2483255514700387e-02  5.5644697874756227e-03  1.3936163832665256e-03  -1.5874344273092067e-15  9.9999999999999978e-01  9.9916204312221224e-01  9.9664700128021577e-01  9.9245255171210423e-01  9.8657716320092781e-01  9.7902232422749824e-01  9.6979423290041933e-01  9.5890481935147409e-01  9.4637232031740104e-01  9.3222081637109488e-01  9.1647510459543746e-01  8.9916060121759067e-01  8.8031017281686730e-01  8.5996424506472868e-01  8.3817201151072962e-01  8.1500454339718831e-01  7.9053454562314762e-01  7.6483203074964023e-01  7.3798520078424346e-01  7.1007369155308930e-01  6.8119525225639210e-01  6.5147513321804373e-01  6.2101412516336918e-01  5.8990647794502782e-01  5.5826943510252591e-01  5.2621823406256818e-01  4.9386909531381662e-01  4.6134512345738837e-01  4.2877080978311821e-01  3.9627352980884445e-01  3.6398368877133030e-01  3.3203117422399653e-01  3.0054478318880667e-01  2.6967122986393416e-01  2.3955132772653853e-01  2.1036186289688047e-01  1.8229816087620265e-01  1.5556383660328943e-01  1.3036937449114891e-01  1.0692370437102083e-01  8.5418774761461369e-02  6.6030653966670599e-02  4.8914396784311309e-02  3.4205440058256611e-02  2.2016571092926703e-02  1.2439749731298253e-02  5.5466192279877320e-03  1.3893469381086347e-03  -8.0528264618089505e-16  9.9999999999999978e-01  9.9916079309257699e-01  9.9664114758026578e-01  9.9243628325088118e-01  9.8654078595141947e-01  9.7895204314465678e-01  9.6967348749446969e-01  9.5871629265213321e-01  9.4609932776528594e-01  9.3184737356832825e-01  9.1598792258867823e-01  8.9855061227776567e-01  8.7957150092435066e-01  8.5909990907819378e-01  8.3718849381892191e-01  8.1389619830062054e-01  7.8929946375117321e-01  7.6347869644598976e-01  7.3651842433158732e-01  7.0850341565366037e-01  6.7953578608073772e-01  6.4973135162493445e-01  6.1919481204448201e-01  5.8802891911445476e-01  5.5634655689376711e-01  5.2426979304364540e-01  4.9192111039750991e-01  4.5941872851453275e-01  4.2688966472739232e-01  3.9445848302747843e-01  3.6224456024969870e-01  3.3037534408918257e-01  2.9897849146356387e-01  2.6820037903333105e-01  2.3818959751951821e-01  2.0912139017528142e-01  1.8118857041741498e-01  1.5459739501473216e-01  1.2955206399016114e-01  1.0625562411596029e-01  8.4894157081529947e-02  6.5639002938468013e-02  4.8641088538512525e-02  3.4029642572639227e-02  2.1914389587946621e-02  1.2387877207516400e-02  5.5256263602845388e-03  1.3844382514248816e-03  -8.9613723652966017e-16  9.9999999999999967e-01  9.9915904541887712e-01  9.9663291120772945e-01  9.9241350373114912e-01  9.8649155787123333e-01  9.7886104050532163e-01  9.6952304853007687e-01  9.5848811040224313e-01  9.4577621407421808e-01  9.3141418488818772e-01  9.1543160853601491e-01  8.9786207122652395e-01  8.7874576701381568e-01  8.5813873597017243e-01  8.3609858480449839e-01  8.1267573806993909e-01  7.8794971676112890e-01  7.6200914117575747e-01  7.3493527106063938e-01  7.0681762565544837e-01  6.7776163134320411e-01  6.4787410576809168e-01  6.1726297182263190e-01  5.8603845323557646e-01  5.5430880339250999e-01  5.2220211067048838e-01  4.8984633755612073e-01  4.5735453354131100e-01  4.2485744521076152e-01  3.9248049662750523e-01  3.6033255272521864e-01  3.2853675563674012e-01  2.9723139063269577e-01  2.6655648949971561e-01  2.3666647267981583e-01  2.0773361581540759e-01  1.7994629237495272e-01  1.5351504586600856e-01  1.2863736401214335e-01  1.0550761869417488e-01  8.4308218130253965e-02  6.5202214776241649e-02  4.8333571417826515e-02  3.3827354298834530e-02  2.1792572086694436e-02  1.2323516771598084e-02  5.4986595883171948e-03  1.3780071400499791e-03  -5.6074033420580507e-16  1.0000000000000004e+00  9.9915617448364646e-01  9.9662041315150474e-01  9.9238191022919009e-01  9.8642797242194202e-01  9.7874930630243473e-01  9.6934460199768180e-01  9.5822356426841948e-01  9.4540753152877310e-01  9.3092701374749276e-01  9.1481633675465057e-01  8.9711082321397040e-01  8.7785223109324617e-01  8.5710204612184637e-01  8.3492235749566657e-01  8.1136269974293052e-01  7.8650478293435866e-01  7.6044259137225756e-01  7.3325429803738040e-01  7.0503384537244840e-01  6.7588915676390038e-01  6.4591877963456101e-01  6.1523333193827257e-01  5.8394914634455941e-01  5.5216982177167295e-01  5.2002962449489043e-01  4.8766051620126727e-01  4.5517014022300800e-01  4.2269356826572418e-01  3.9035798496136914e-01  3.5826584400952249e-01  3.2653968513683795e-01  2.9532509162635434e-01  2.6475988253370730e-01  2.3500560543556956e-01  2.0622963355303561e-01  1.7861321961651780e-01  1.5236114648093679e-01  1.2766646163702103e-01  1.0471300398316186e-01  8.3679676433382172e-02  6.4729034778544373e-02  4.7997928796780859e-02  3.3605320985991928e-02  2.1658376784575804e-02  1.2252477326319653e-02  5.4687680532944424e-03  1.3708329442279458e-03  -8.9327123968113827e-16  9.9999999999999978e-01  9.9915205965943021e-01  9.9660361741616177e-01  9.9234272900561904e-01  9.8635402131548622e-01  9.7862461976220161e-01  9.6915013199899580e-01  9.5793888850677267e-01  9.4501307534426215e-01  9.3040637248587965e-01  9.1415869893357937e-01  8.9631028502414989e-01  8.7690524382621504e-01  8.5600667010350839e-01  8.3367843522232010e-01  8.0997724884163003e-01  7.8498547829868814e-01  7.5879968325802327e-01  7.3149545043565600e-01  7.0317103042290785e-01  6.7393624719137424e-01  6.4388225648852560e-01  6.1312203856165592e-01  5.8177665120984234e-01  5.4994512263294082e-01  5.1776836362876377e-01  4.8538118655198798e-01  4.5288566109817574e-01  4.2042070715437629e-01  3.8811568083958403e-01  3.5607081440045935e-01  3.2441226910458815e-01  2.9328924293437397e-01  2.6283994944726435e-01  2.3323547708396655e-01  2.0464070764454789e-01  1.7722096026511261e-01  1.5117050238474203e-01  1.2667269358124561e-01  1.0390246555584313e-01  8.3040534300491575e-02  6.4247759288447989e-02  4.7656379061505154e-02  3.3379191244881062e-02  2.1521020626325417e-02  1.2178816065505195e-02  5.4372168718875881e-03  1.3631283970522142e-03  -7.5786126038270130e-16  9.9999999999999956e-01  9.9914799151318212e-01  9.9658653913822193e-01  9.9230182625987240e-01  9.8627564301531134e-01  9.7849196548725770e-01  9.6894398934235082e-01  9.5763912436226750e-01  9.4460033985007685e-01  9.2986378124723268e-01  9.1347346244190086e-01  8.9547555634583054e-01  8.7591953128558120e-01  8.5486725656987606e-01  8.3238524073294062e-01  8.0854018684319962e-01  7.8341317104619212e-01  7.5710139519687925e-01  7.2967906685571327e-01  7.0124865919974766e-01  6.7192148855757539e-01  6.4178225332584848e-01  6.1094604580365541e-01  5.7953754264990265e-01  5.4765149509615874e-01  5.1543548171249387e-01  4.8302640973341016e-01  4.5052201558304461e-01  4.1806311689594555e-01  3.8578256811008815e-01  3.5377859306575360e-01  3.2218591798357421e-01  2.9115613058928796e-01  2.6083075653125548e-01  2.3138202121402954e-01  2.0296737990196156e-01  1.7574666781430801e-01  1.4990601899738046e-01  1.2562282288628529e-01  1.0306494422201604e-01  8.2396737447326576e-02  6.3774583005511823e-02  4.7326791490623354e-02  3.3164599222505468e-02  2.1392920941307857e-02  1.2111173810669534e-02  5.4084530038786610e-03  1.3560547923006881e-03  -1.5699914949850764e-15  1.0000000000000004e+00  9.9914530529358581e-01  9.9657428011326155e-01  9.9226898763672222e-01  9.8620686169569283e-01  9.7836863355421999e-01  9.6874557638531300e-01  9.5734443696055926e-01  9.4418900171011144e-01  9.2931796718631798e-01  9.1277980919414170e-01  8.9462697707680672e-01  8.7491461467216403e-01  8.5370483568577371e-01  8.3106619984199182e-01  8.0707326734669016e-01  7.8180865616250994e-01  7.5536770304450596e-01  7.2782478547783891e-01  6.9928579313292916e-01  6.6986331386239550e-01  6.3963667368283883e-01  6.0872262583791215e-01  5.7724851352173323e-01  5.4530568455144435e-01  5.1304855391506210e-01  4.8061531294975457e-01  4.4809908357680955e-01  4.1564340848313941e-01  3.8338686321700249e-01  3.5142230577144229e-01  3.1989494702387167e-01  2.8895926935995569e-01  2.5876130554327165e-01  2.2946693168674587e-01  2.0122852114328790e-01  1.7420642458675684e-01  1.4858062422331492e-01  1.2452153214804840e-01  1.0218551929934461e-01  8.1720359326147490e-02  6.3273376474899820e-02  4.6972500051017163e-02  3.2929849668163355e-02  2.1250827139216243e-02  1.2035970777646642e-02  5.3768952027805966e-03  1.3484807696404881e-03  -9.6856050251004320e-16  9.9999999999999978e-01  9.9914205479821738e-01  9.9656026297579170e-01  9.9223362710035135e-01  9.8613563327437792e-01  9.7824332240206091e-01  9.6854534451717977e-01  9.5704736363974074e-01  9.4377391439109604e-01  9.2876642361233830e-01  9.1207800638491321e-01  8.9376730465509202e-01  8.7389535516172656e-01  8.5252729875440925e-01  8.2973417276040284e-01  8.0559313849465353e-01  7.8018905607887112e-01  7.5361588396048895e-01  7.2595046377414807e-01  6.9730023432902266e-01  6.6777924514790299e-01  6.3746303221929346e-01  6.0646908899861474e-01  5.7492657861832219e-01  5.4292490038516716e-01  5.1062458618594231e-01  4.7816661637805474e-01  4.4563736335427423e-01  4.1318258116197454e-01  3.8094953141309146e-01  3.4903098109594932e-01  3.1757342175358327e-01  2.8673420828496909e-01  2.5666390463636662e-01  2.2752258707250364e-01  1.9946061562580941e-01  1.7264079580044453e-01  1.4723427093871641e-01  1.2340134079547327e-01  1.0128648212743155e-01  8.1023154139839751e-02  6.2747562402714466e-02  4.6592196581794809e-02  3.2671269791369133e-02  2.1089596209121399e-02  1.1947955745608018e-02  5.3390023236583022e-03  1.3392795179839562e-03  -1.1449262472059800e-15  9.9999999999999944e-01  9.9913735946572058e-01  9.9654092971852604e-01  9.9218816181297231e-01  9.8605024592034141e-01  9.7810156453056574e-01  9.6832833098708027e-01  9.5673471775273444e-01  9.4334534971966777e-01  9.2820365664835103e-01  9.1136673574861649e-01  8.9289888658116034e-01  8.7286718070848157e-01  8.5134119606746661e-01  8.2839484272323027e-01  8.0410764699686998e-01  7.7856561482776487e-01  7.5186021879047615e-01  7.2407188687264357e-01  6.9530800041299101e-01  6.6568533186039625e-01  6.3527794794973225e-01  6.0420236664915261e-01  5.7258888245527528e-01  5.4052706107842607e-01  5.0818205418640816e-01  4.7569813548924006e-01  4.4315557972313746e-01  4.1070249708149109e-01  3.7849316931705684e-01  3.4662669645897037e-01  3.1524796159878365e-01  2.8451297409753074e-01  2.5457681508952634e-01  2.2559396915052163e-01  1.9771460831400547e-01  1.7109958838219777e-01  1.4591037093526496e-01  1.2229708673139955e-01  1.0039544014321936e-01  8.0331556737793922e-02  6.2233327191754034e-02  4.6226167755358281e-02  3.2425878479675492e-02  2.093841042002033