<?xml version="1.0"?>
<VTKFile type="UnstructuredGrid"  version="0.1"  >
<UnstructuredGrid>
<Piece  NumberOfPoints="2555" NumberOfCells="4406">
<Points>
<DataArray  type="Float64"  NumberOfComponents="3"  format="ascii">-20 2 0  -20 0 0  -1 0 0  -0.9996988186962042 0.02454122852291233 0  -0.9987954562051724 0.04906767432741797 0  -0.9972904566786902 0.07356456359966773 0  -0.9951847266721968 0.09801714032956083 0  -0.99247953459871 0.1224106751992163 0  -0.989176509964781 0.1467304744553618 0  -0.9852776423889412 0.1709618887603012 0  -0.9807852804032304 0.1950903220161286 0  -0.9757021300385285 0.21910124015687 0  -0.970031253194544 0.2429801799032641 0  -0.9637760657954398 0.2667127574748985 0  -0.9569403357322088 0.2902846772544624 0  -0.9495281805930367 0.3136817403988914 0  -0.9415440651830207 0.3368898533922203 0  -0.9329927988347388 0.3598950365349883 0  -0.9238795325112867 0.3826834323650899 0  -0.9142097557035307 0.4052413140049899 0  -0.9039892931234433 0.427555093430282 0  -0.8932243011955152 0.4496113296546069 0  -0.8819212643483549 0.4713967368259979 0  -0.8700869911087113 0.4928981922297841 0  -0.857728610000272 0.5141027441932218 0  -0.8448535652497071 0.5349976198870972 0  -0.8314696123025453 0.5555702330196022 0  -0.8175848131515836 0.5758081914178454 0  -0.8032075314806448 0.5956993044924335 0  -0.7883464276266062 0.6152315905806269 0  -0.773010453362737 0.6343932841636455 0  -0.7572088465064846 0.6531728429537766 0  -0.7409511253549589 0.6715589548470186 0  -0.7242470829514668 0.6895405447370671 0  -0.7071067811865475 0.7071067811865476 0  -0.6895405447370669 0.7242470829514669 0  -0.6715589548470184 0.740951125354959 0  -0.6531728429537765 0.7572088465064847 0  -0.6343932841636454 0.7730104533627371 0  -0.6152315905806267 0.7883464276266063 0  -0.5956993044924334 0.8032075314806449 0  -0.5758081914178453 0.8175848131515837 0  -0.555570233019602 0.8314696123025455 0  -0.534997619887097 0.8448535652497072 0  -0.5141027441932217 0.8577286100002721 0  -0.492898192229784 0.8700869911087115 0  -0.4713967368259977 0.881921264348355 0  -0.4496113296546067 0.8932243011955152 0  -0.4275550934302819 0.9039892931234434 0  -0.4052413140049897 0.9142097557035307 0  -0.3826834323650897 0.9238795325112867 0  -0.3598950365349882 0.9329927988347388 0  -0.3368898533922199 0.9415440651830208 0  -0.3136817403988914 0.9495281805930367 0  -0.2902846772544622 0.9569403357322089 0  -0.2667127574748983 0.9637760657954398 0  -0.2429801799032639 0.970031253194544 0  -0.2191012401568697 0.9757021300385286 0  -0.1950903220161282 0.9807852804032304 0  -0.1709618887603012 0.9852776423889412 0  -0.1467304744553616 0.989176509964781 0  -0.1224106751992162 0.99247953459871 0  -0.09801714032956065 0.9951847266721969 0  -0.07356456359966733 0.9972904566786902 0  -0.04906767432741801 0.9987954562051724 0  -0.02454122852291214 0.9996988186962042 0  6.123233995736766e-17 1 0  0.02454122852291226 0.9996988186962042 0  0.04906767432741813 0.9987954562051724 0  0.07356456359966745 0.9972904566786902 0  0.09801714032956077 0.9951847266721968 0  0.1224106751992163 0.99247953459871 0  0.1467304744553617 0.989176509964781 0  0.1709618887603014 0.9852776423889412 0  0.1950903220161283 0.9807852804032304 0  0.2191012401568698 0.9757021300385286 0  0.242980179903264 0.970031253194544 0  0.2667127574748984 0.9637760657954398 0  0.2902846772544623 0.9569403357322089 0  0.3136817403988916 0.9495281805930367 0  0.3368898533922201 0.9415440651830208 0  0.3598950365349883 0.9329927988347388 0  0.3826834323650898 0.9238795325112867 0  0.4052413140049899 0.9142097557035307 0  0.4275550934302822 0.9039892931234433 0  0.4496113296546066 0.8932243011955153 0  0.4713967368259978 0.8819212643483549 0  0.4928981922297841 0.8700869911087113 0  0.5141027441932217 0.8577286100002721 0  0.5349976198870973 0.844853565249707 0  0.5555702330196023 0.8314696123025452 0  0.5758081914178453 0.8175848131515837 0  0.5956993044924335 0.8032075314806448 0  0.6152315905806268 0.7883464276266062 0  0.6343932841636455 0.773010453362737 0  0.6531728429537768 0.7572088465064845 0  0.6715589548470183 0.7409511253549591 0  0.6895405447370669 0.7242470829514669 0  0.7071067811865476 0.7071067811865475 0  0.724247082951467 0.6895405447370668 0  0.7409511253549591 0.6715589548470183 0  0.7572088465064846 0.6531728429537768 0  0.773010453362737 0.6343932841636455 0  0.7883464276266063 0.6152315905806268 0  0.8032075314806449 0.5956993044924334 0  0.8175848131515837 0.5758081914178453 0  0.8314696123025452 0.5555702330196022 0  0.8448535652497071 0.5349976198870972 0  0.8577286100002721 0.5141027441932217 0  0.8700869911087115 0.492898192229784 0  0.881921264348355 0.4713967368259976 0  0.8932243011955153 0.4496113296546065 0  0.9039892931234433 0.4275550934302821 0  0.9142097557035307 0.4052413140049899 0  0.9238795325112867 0.3826834323650898 0  0.932992798834739 0.3598950365349881 0  0.9415440651830208 0.3368898533922201 0  0.9495281805930367 0.3136817403988915 0  0.9569403357322088 0.2902846772544623 0  0.9637760657954398 0.2667127574748984 0  0.970031253194544 0.2429801799032639 0  0.9757021300385286 0.2191012401568698 0  0.9807852804032304 0.1950903220161282 0  0.9852776423889412 0.1709618887603012 0  0.989176509964781 0.1467304744553617 0  0.99247953459871 0.1224106751992162 0  0.9951847266721969 0.0980171403295606 0  0.9972904566786902 0.07356456359966743 0  0.9987954562051724 0.04906767432741801 0  0.9996988186962042 0.02454122852291229 0  1 0 0  20 0 0  20 2 0  0 2 0  -10 2 0  10 2 0  -10.5 0 0  -5 2 0  10.5 0 0  5 2 0  -15 2 0  -5.75 0 0  -2.5 2 0  15 2 0  5.75 0 0  2.5 2 0  -15.25 0 0  -3.375 0 0  15.25 0 0  3.375 0 0  -17.625 0 0  -17.5 2 0  17.5 2 0  17.625 0 0  8.125 0 0  7.5 2 0  12.875 0 0  12.5 2 0  -12.5 2 0  -12.875 0 0  -8.125 0 0  -7.5 2 0  -18.75 2 0  -18.8125 0 0  18.75 2 0  18.8125 0 0  16.4375 0 0  16.25 2 0  -16.25 2 0  -16.4375 0 0  13.75 2 0  -14.0625 0 0  -13.75 2 0  -11.6875 0 0  11.6875 0 0  -9.3125 0 0  8.75 2 0  -8.75 2 0  6.9375 0 0  6.25 2 0  -6.9375 0 0  -6.25 2 0  9.3125 0 0  11.25 2 0  -11.25 2 0  3.75 2 0  4.5625 0 0  -4.5625 0 0  -3.75 2 0  -1.25 2 0  1.25 2 0  14.0625 0 0  2.1875 0 0  -2.1875 0 0  -20 1 0  20 1 0  18.21875 0.982421875 0  -18.21875 0.982421875 0  16.875 1.0498046875 0  -17.03125 0.966796875 0  -15.84375 0.953125 0  15.625 1.0625 0  14.375 1.0732421875 0  -14.375 1.0732421875 0  1.830289387965117 1.052284088108649 0  -1.830289387965117 1.052284088108649 0  -3.125 1.08203125 0  -13.28477656888586 1.012129001112436 0  13.125 1.08203125 0  3.125 1.08203125 0  -4.375 1.0888671875 0  11.875 1.0888671875 0  -11.875 1.0888671875 0  4.203765290519877 1.0193030867737 0  -5.625 1.09375 0  5.625 1.09375 0  10.625 1.09375 0  -10.80634835916782 1.025744365312066 0  9.375 1.0966796875 0  -6.875 1.0966796875 0  -9.375 1.0966796875 0  6.684990875912408 1.03136405109489 0  -8.322099415573495 1.036062682633283 0  8.125 1.09765625 0  19.11075969939671 0.8508947319664032 0  -19.11075969939671 0.8508947319664032 0  -7.53125 0 0  8.71875 0 0  7.423362102206937 0.6655467048188293 0  9.90625 0 0  -6.34375 0 0  -10.07209987056368 0.6864155791813131 0  -5.15625 0 0  4.932893941568688 0.70313517104756 0  11.09375 0 0  -3.96875 0 0  12.28125 0 0  -12.56167362378033 0.7158719711052053 0  -15.12789358749343 1.239622257084254 0  19.375 2 0  -19.375 2 0  -7.586458743762512 0.7777256637040587 0  -8.876841588719831 0.5749490497356908 0  -2.78125 0 0  13.46875 0 0  2.486351124110562 0.6882204272146759 0  -2.484375 0.6875496078884429 0  13.765625 0.6685592193186988 0  6.127605163798639 0.5971727330055587 0  0.625 2 0  -0.625 2 0  -1.146535794159178 1.28513409566998 0  1.146535794159178 1.285134095669981 0  14.65625 0 0  14.953125 0.6512707752786624 0  -14.87682753143027 0.5890664696931456 0  12.578125 0.6384885491877257 0  -3.671875 0.6384885491877257 0  -15.625 2 0  -11.36675239212577 0.6158089665857418 0  15.00271470412651 1.324726469417674 0  17.53235848397354 0.7266244978817956 0  11.390625 0.6116981677410314 0  -4.859375 0.6116981677410314 0  15.84375 0 0  16.140625 0.6148897058823529 0  7.497593266890831 1.330710907262048 0  13.76254792112057 1.334335181755445 0  -10.20969602084016 1.352738855957021 0  17.03125 0 0  3.639986821556412 0.6311208834101457 0  -2.422032960990368 1.344610008595471 0  -1.875 2 0  2.42168763602468 1.344854035092462 0  1.875 2 0  -6.046875 0.5879464285714285 0  10.203125 0.5879464285714285 0  4.785027294216357 1.360955117010924 0  -16.43327865604348 1.32661481258014 0  -16.44139997701004 0.663326532427168 0  -12.71719161438206 1.366886164755866 0  9.015625 0.567039754702805 0  -13.85227446991684 0.6433291643838606 0  17.68435132148515 1.367585767263021 0  -8.125 2 0  -7.779164034427432 1.405551895778211 0  6.875 2 0  -16.875 2 0  16.25211206745888 1.264109755085799 0  -3.748868614850469 1.292331074664245 0  12.50113138514953 1.292331074664245 0  -4.999425840599162 1.238293400364507 0  11.25057415940084 1.238293400364507 0  10.00021284174179 1.186027320246887 0  -6.249787158258211 1.186027320246887 0  8.750028772491092 1.133996757348608 0  8.125 2 0  -9.375 2 0  -6.875 2 0  9.375 2 0  10.625 2 0  5.625 2 0  -5.625 2 0  -11.875 2 0  11.875 2 0  -4.375 2 0  3.125 2 0  13.125 2 0  -14.375 2 0  14.375 2 0  15.625 2 0  -18.125 2 0  16.875 2 0  -3.125 2 0  -10.625 2 0  4.375 2 0  -13.125 2 0  18.125 2 0  -17.62042339570457 1.322431301452557 0  -17.64048254773117 0.661277151197267 0  -1.59375 0 0  1.59375 0 0  -19.40625 0 0  19.40625 0 0  20 0.5 0  19.0625 1.466926268772181 0  -18.7305243036722 1.362703047674974 0  -5.451064633443578 0.5209722999527524 0  10.79893536655642 0.5209722999527524 0  9.610417111950763 0.5183010867631196 0  -13.46875 0 0  3.96875 0 0  -11.09375 0 0  6.34375 0 0  2.78125 0 0  -8.71875 0 0  -12.28125 0 0  5.15625 0 0  -9.90625 0 0  7.53125 0 0  -15.84375 0 0  -17.03125 0 0  -18.21875 0 0  18.21875 0 0  -14.65625 0 0  20 1.5 0  -19.48071156660626 1.370757229128913 0  -20 0.5 0  -4.24552725411087 0.5169543671041
[...]
<PointData  Scalars="f_15748"> 
<DataArray  type="Float64"  Name="f_15748"  format="ascii">7.8239239468547805e-01  7.8240187035675535e-01  4.5522122352538980e-01  4.5521066350332173e-01  4.5516071854167911e-01  4.5508060769010467e-01  4.5496564372858772e-01  4.5482928866729988e-01  4.5462768844606716e-01  4.5434184995623172e-01  4.5416202536145939e-01  4.5402075351891197e-01  4.5358158499351764e-01  4.5323937982123935e-01  4.5285211649868851e-01  4.5243937940200823e-01  4.5201212945850333e-01  4.5152702209957857e-01  4.5103855872784404e-01  4.5049828926318075e-01  4.4992253572879148e-01  4.4932112321706258e-01  4.4869366704276059e-01  4.4803255569514749e-01  4.4733691566581979e-01  4.4661125152967424e-01  4.4583344046808915e-01  4.4503336614467209e-01  4.4419779397564824e-01  4.4333538859367333e-01  4.4243360998415432e-01  4.4151324333911585e-01  4.4054789715934878e-01  4.3955509071554472e-01  4.3854647796211382e-01  4.3746635752911084e-01  4.3640820189886992e-01  4.3528124425966863e-01  4.3413134027271100e-01  4.3294672307285609e-01  4.3175502212038891e-01  4.3050876554658302e-01  4.2921271180559056e-01  4.2792011888400883e-01  4.2656908451257447e-01  4.2516773653832646e-01  4.2351078137602544e-01  4.2241795373844460e-01  4.2092797141117272e-01  4.1943237589641486e-01  4.1792168400896007e-01  4.1640685243564945e-01  4.1486833973191656e-01  4.1327635883098446e-01  4.1166239831215329e-01  4.1003782829613106e-01  4.0838999844672796e-01  4.0671420770528022e-01  4.0504666988665511e-01  4.0335145358858376e-01  4.0164762428414408e-01  3.9992521352339616e-01  3.9819351514353396e-01  3.9644791081568004e-01  3.9470359214964135e-01  3.9292900681297144e-01  3.9118076315973105e-01  3.8942845332118825e-01  3.8768044760462922e-01  3.8594223746756667e-01  3.8418982529823154e-01  3.8246794276369539e-01  3.8073230628692545e-01  3.7901344815969051e-01  3.7732344475112206e-01  3.7566712682581987e-01  3.7398822659092529e-01  3.7227178908390757e-01  3.7066568904363034e-01  3.6916559653633890e-01  3.6750490242908829e-01  3.6597012344488372e-01  3.6442643703112898e-01  3.6292591408435304e-01  3.6145888641031609e-01  3.5999974731107365e-01  3.5858139871371891e-01  3.5717258449237455e-01  3.5580862836312205e-01  3.5446432230415237e-01  3.5316737862419723e-01  3.5188969486887867e-01  3.5065520680649886e-01  3.4943382217535346e-01  3.4826388411174658e-01  3.4710437584754844e-01  3.4598263024130727e-01  3.4489768484733047e-01  3.4385001344960420e-01  3.4282143274031962e-01  3.4183154713723612e-01  3.4087567342947367e-01  3.3995150638422572e-01  3.3905317797281798e-01  3.3819423849635638e-01  3.3736947351388197e-01  3.3656746719563996e-01  3.3581836353432132e-01  3.3507501233493531e-01  3.3437409823233039e-01  3.3371759920537747e-01  3.3307123818670564e-01  3.3245106606014690e-01  3.3188154338246434e-01  3.3131103665380623e-01  3.3032285905537290e-01  3.3049519707525910e-01  3.2992794308725376e-01  3.2952621599564474e-01  3.2915511614267634e-01  3.2881732622730009e-01  3.2849214228728346e-01  3.2822201862983480e-01  3.2797198736794547e-01  3.2777430201627666e-01  3.2758000805089993e-01  3.2743561193134657e-01  3.2732224755705136e-01  3.2723643631417804e-01  3.2718594861765726e-01  3.2717231099932753e-01  0.0000000000000000e+00  0.0000000000000000e+00  3.9115226476962456e-01  6.0325446435896368e-01  1.7916723756966099e-01  6.1221204228417281e-01  5.1366810295346199e-01  1.7020931377480777e-01  2.6875369144593531e-01  6.9283143445330986e-01  5.2712008222487383e-01  4.6811215998822581e-01  8.9592408740056653e-02  2.5530000552989829e-01  3.1434345209840975e-01  6.9730576929320920e-01  4.8475451017955296e-01  8.5110961952922046e-02  2.9767307398167175e-01  7.3983701112861566e-01  7.3762482428440845e-01  4.4800591419223337e-02  4.2561199012519729e-02  2.1275203118401198e-01  2.2395756219439508e-01  1.2765883399014297e-01  1.3438209002364854e-01  6.4803751299248968e-01  6.5475894348499597e-01  5.6966473908546900e-01  5.5846509069200057e-01  7.6001517378643180e-01  7.6113185202951894e-01  2.2404470991081182e-02  2.1287678220596826e-02  6.3835836653252473e-02  6.7194132741784124e-02  7.1522663839374134e-01  7.1858495277930334e-01  1.1198276628910533e-01  6.7603613903337068e-01  6.7043720369019533e-01  6.3345860644279184e-01  1.4893391114421950e-01  5.9093755214559596e-01  2.0156031468650334e-01  5.8086016281965958e-01  2.3403198176840007e-01  2.4635074406260310e-01  5.4838486237798789e-01  5.3606770707086027e-01  1.9148354018729355e-01  1.5677202626707251e-01  6.2564926424349709e-01  2.9122628748974999e-01  2.7655648842382141e-01  5.0586343559667934e-01  4.9119188690389165e-01  4.4016320699971562e-01  3.4256027858195764e-01  1.0637632272479465e-01  3.1756544096671235e-01  4.6489192199710599e-01  7.8240876421984951e-01  0.0000000000000000e+00  3.1922941018669375e-02  7.5049771633340390e-01  5.5996306132501263e-02  7.2922528931964348e-01  7.0794849378706781e-01  7.8391715461808231e-02  1.0078323338442018e-01  6.8163477146880347e-01  3.2628407674356147e-01  4.5613575723344246e-01  4.8000012675388731e-01  6.6210093123212799e-01  1.2317924638822060e-01  3.0242389531698255e-01  5.0246935308785556e-01  1.4557533964711550e-01  6.3684531484637463e-01  2.8301441572613095e-01  5.2486995789114343e-01  2.5754714119539396e-01  1.6796741190307865e-01  6.1769853168052391e-01  1.9036145939088325e-01  5.4726697778270350e-01  5.9205735284658667e-01  2.3855506156851658e-01  5.7319570314329005e-01  2.1275500595181071e-01  1.5943281250570426e-02  7.6647798257507982e-01  5.5902281345020532e-01  2.0211949863353793e-01  2.2532723473568594e-01  1.8083845488327913e-01  5.3775293464308871e-01  6.0454841787145275e-01  5.1648199017159646e-01  2.6994156412952403e-01  1.5957038532381876e-01  4.9525073969285172e-01  1.3829730434437729e-01  6.4914548260006011e-01  6.9512289969815444e-01  1.1206068994267087e-02  7.7121146822507480e-01  5.6001905965241683e-01  5.8313917834349971e-01  4.7441889518312685e-01  1.1702393909681945e-01  3.1349544538345558e-01  4.6890371463629515e-01  1.1170085147476402e-01  2.4853953985152180e-01  3.6343822591324737e-01  4.1907910674997717e-01  4.3907674855091200e-01  3.4319674977189452e-01  9.5748769651058996e-02  9.0428446526844036e-02  6.9062472829538957e-01  1.3297785918408545e-01  4.8992841675744525e-01  7.0402839858555377e-01  6.2773527207403390e-01  8.9540860777112180e-02  4.4220803094039321e-02  1.5425249106710356e-01  5.1116296759627922e-01  7.4469385767244073e-02  6.9151429989713381e-02  2.2399610692282157e-01  1.1175200214342879e-01  6.0700994247304096e-01  5.3199868249934418e-02  2.9305596305424159e-01  4.6683322483405998e-01  4.5538892302050710e-01  3.1557520104438247e-01  3.2704121384608947e-01  5.3243228621275573e-01  1.7552504004920425e-01  2.7260542409349564e-01  7.1850843998118297e-01  7.1865714688027960e-01  6.5193402371783937e-01  1.9679867570521140e-01  6.7226990872300696e-01  4.1499456969221381e-02  5.6966371306986652e-01  5.6346709382817806e-01  2.3514995570680569e-01  7.2642445179844506e-01  6.7157865270198583e-02  4.9120906529181302e-01  1.3436038278873877e-01  5.1366062080400710e-01  1.5676228940891318e-01  1.7916120940779667e-01  5.3606616629744586e-01  2.0155756221976251e-01  2.1274992246130398e-01  5.9205718045293687e-01  5.4726878665887813e-01  1.9036347940331630e-01  1.6796784758233618e-01  2.5754638293975957e-01  5.2487202715970305e-01  6.3683849978202423e-01  1.4556674002972142e-01  5.0245180960276314e-01  3.0256425399547893e-01  1.2317258055408266e-01  6.8163453232863769e-01  1.0078616413065303e-01  7.8392547175325997e-02  7.4881887731280561e-01  5.5999599244276700e-02  4.7982982460435097e-01  6.1445046508848800e-01  2.7997304714853061e-01  6.5924168335941147e-01  3.3603382789507863e-02  7.3977735623431462e-01  7.4013805633501506e-01  4.5698169705532499e-01  3.2553084890347644e-01  7.7176100397709935e-01  1.0651121880799341e-02  0.0000000000000000e+00  1.6804203160573048e-02  7.5966582046543352e-01  5.2175943554045712e-01  1.6485283859823335e-01  1.8613820735993161e-01  6.6539837555151193e-01  2.8714995859601172e-01  6.2284679409205290e-01  2.4466646794371641e-01  3.0796099160658108e-01  5.8028903421081901e-01  6.4413061633738411e-01  2.6593424650926906e-01  6.0157683969554154e-01  2.2339465200044636e-01  7.0794439563182898e-01  7.2922159776708917e-01  7.5049769339241768e-01  3.1924328476028815e-02  6.8667173506324353e-01  0.0000000000000000e+00  7.7310773744492178e-01  7.8240248997752593e-01  5.0018360487148406e-01  1.4325507777251181e-01  6.3880627190970096e-01  7.5751842226113719e-01  2.8003963029746330e-02  2.4906686822254782e-02  5.8516341717758359e-02  1.2161794462793610e-01  4.7861775393897127e-01  3.0307387894382937e-01  4.5320364122331330e-01  3.2946209880269656e-01  7.9791674089060252e-02  7.0262869691593743e-01  6.7603580005433450e-01  1.0106586883035024e-01  2.9688547084928718e-01  3.7575237521869581e-01  4.0662458940654428e-01  6.3124598434240409e-01  6.4244322347756566e-01  2.6315131093215094e-01  2.5856704439723971e-01  2.5194748282135304e-01  5.5375890796255756e-01  5.4324577092354442e-01  5.9765553857872045e-01  5.9309103077580938e-01  5.8645764426417746e-01  2.0780511678140068e-01  6.6008051622337016e-01  6.6627037525839983e-01  2.8187175496773076e-01  2.8713026571438621e-01  6.1753066203468032e-01  6.2167439209919795e-01  6.8687359705515394e-01  7.0900801256299129e-01  2.0760961188892896e-01  1.9596073838698225e-01  2.3888534820751811e-01  2.4245183559130057e-01  5.6887825248681334e-01  5.7702509693412674e-01  8.7744331605831109e-03  2.3310945164873917e-01  7.3058309309086911e-01  5.0397144004638891e-02  1.8476688807517211e-01  5.4270748021133874e-01  5.3046967630190622e-01  1.7248808630807447e-01  6.8139267188946451e-01  7.5076085937433956e-01  4.4820989071513040e-01  3.3398379538027895e-01  3.2129232823271497e-01  5.5369344252313291e-01  4.6082169409222934e-01  7.8240726155581053e-01  3.5647266645768887e-02  5.8299259432063399e-01  1.6353498976868938e-01  5.2083999173165851e-01  2.1647592446412917e-01  5.0805873703631765e-01  1.5117236393333033e-01  5.9450218310212535e-02  2.4765211805968043e-01  7.4857795831069474e-01  7.2793191886856456e-02  8.1506214515271319e-02  7.2698653207304920e-01  3.0838668209004910e-01  4.7559405455468312e-01  6.2690337844402033e-01  9.1843822342641667e-03  7.7323690418029212e-01  2.2907525862181706e-02  1.4202389855980727e-01  4.9888543419983422e-01  4.8553133263390696e-01  1.2877891197113694e-01  2.9236407896994787e-01  2.1630021119479056e-01  1.0373037497768356e-01  6.7155201148145449e-01  9.5643998937754243e-02  1.1982950072663001e-01  7.1082015138007848e-01  6.4513456202917041e-01  7.0081400674998673e-01  7.6633589758672738e-01  2.3018734204360181e-01  4.5813515010309247e-01  3.2426092514383809e-01  4.3054240612962424e-01  3.5200897266241676e-01  4.7879740863953531e-02  2.6579324722829745e-01  1.7159714006412606e-02  7.6526447636198414e-01  6.0031443271567220e-01  7.0009441818261919e-01  4.8273765864524198e-02  7.3459185285333761e-01  7.7413086035059431e-01  4.2485238888565224e-01  3.5757910340199595e-01  6.2746721429634680e-02  5.1810497382014910e-02  5.1814840071264945e-01  1.6124293668551529e-01  7.4321805281734621e-01  5.7612969958548543e-01  4.9537246893393611e-01  1.3847009495631685e-01  6.1444938465534149e-01  2.3135288106106863e-01  7.5928679793927067e-01  2.7998893242315315e-01  7.4679943155276339e-03  5.5489180703038044e-01  6.5867825838748595e-01  6.1019208753991039e-01  6.0689253440809010e-01  6.1010121077248014e-01  7.2355877104134592e-01  2.1976209602301203e-01  7.7681992003012557e-01  2.7557124945186506e-01  2.7124795273271690e-01  2.7469986582085776e-01  8.5653142221330553e-02  4.4849150592738435e-01  6.5473318950269443e-01  6.5312301963415653e-01  7.6630382170460742e-01  5.6656538740446627e-01  5.6078306595727567e-01  5.4941228637869921e-01  1.8414820366362170e-01  6.8900729298172769e-01  6.9395422520988115e-01  3.5293246826962339e-02  3.3823741985073535e-01  6.0885205945767118e-01  6.4543352756388339e-01  5.4107116942435773e-01  5.6989090361539629e-01  1.1599505347777275e-01  2.7435765921903654e-01  5.6406495674517088e-01  2.2107736764041186e-01  4.7247705504839810e-01  3.0992474105219620e-01  3.1553955643833342e-01  3.0919778533287862e-01  3.1980716471653375e-01  6.6696308815799676e-01  4.7270077821085899e-01  4.6620371932575111e-01  4.6376877019190704e-01  4.4189228129150476e-01  2.2954437829339119e-01  7.0420751727703035e-01  2.6530672013830625e-01  2.2740471199880813e-01  6.5916983834889864e-02  2.3435879677739932e-01  3.1845133917920121e-01  4.6401174923298921e-01  3.7942804478678246e-02  6.5363820971422826e-01  1.0780767737617425e-01  1.0747322161554386e-01  1.1551720898612951e-01  7.2550448631440834e-01  3.3380878809710629e-01  5.8834853775153462e-01  5.8785075845085655e-01  5.7717508421276786e-01  5.9627925907742951e-01  5.9971328158075288e-01  7.5645942030566693e-01  5.3433200642168700e-03  7.7709569791387900e-01  7.2275651710289079e-01  5.1455646039752068e-01  9.3761415086681593e-02  8.6083210766471366e-02  9.4787019833147620e-02  4.5513508619523333e-03  2.8829164118540862e-01  2.8659470573864682e-01  4.9197510145173873e-01  1.3516024189199660e-01  2.4283977596407266e-01  2.5309182319761797e-01  2.5401660078010929e-01  7.4420778749871397e-01  4.9426142735836709e-01  1.3729837279901844e-01  1.2798898856969571e-01  4.8495334475129831e-01  4.8357427744254855e-01  1.2664765212875029e-01  4.1735041990483022e-02  6.4289795407836881e-01  7.1511980021166477e-01  7.1244438846925173e-01  6.9614153981346083e-01  7.3234927068831934e-01  7.3617336534443878e-01  2.6173905391225316e-01  6.2171454459467324e-01  6.3387315432340996e-01  6.3267480217784544e-01  4.6035619830292263e-01  4.5799266810317329e-01  1.5743596560775530e-01  7.4518463907499410e-01  7.4252014845377423e-01  7.4609647049253969e-01  7.3663593228870861e-01  1.7853041382207119e-01  2.6061945639268846e-01  4.8632394484718433e-01  5.3668191037439106e-01  2.9897716994977608e-01  2.9430989989952550e-01  6.6460729536104102e-01  1.2944755298739730e-01  7.1680940808792545e-02  6.4552668597711305e-02  7.3759144923159978e-02  2.1501287290724205e-01  2.0695190847147865e-01  2.7716046171348679e-01  6.0367127110251551e-01  1.4822709357321073e-01  5.0513995233297770e-01  1.4929621564151693e-01  1.5425046851387952e-01  5.0621382485357058e-01  5.1116688849285397e-01  5.1590327630411048e-01  1.5899149129533030e-01  7.1326842643240818e-01  7.1623880671313178e-01  1.5169578970578629e-01  5.0859510075485970e-01  6.7297062141606256e-01  6.7750133541147528e-01  8.9611473610154230e-02  6.1165149899051208e-01  2.6912133226278534e-01  2.9962113784266033e-02  7.5352829096435137e-01  7.2390777031397047e-01  7.3201970461678556e-01  7.4440980781737354e-01  6.2350891665353947e-01  5.9604870664507204e-01  6.4837248615811061e-01  3.9204238470233181e-02  2.0237796371359335e-01  2.0268806627560915e-01  1.9679941487883257e-01  1.0963744525250176e-01  6.1596480938597438e-02  7.1390635154427795e-01  7.7401216218071700e-01  2.0743554218048280e-01  7.3859321726798779e-02  6.9154976547780411e-02  7.6158362985868214e-02  3.2069794287274245e-01  6.2817126469773432e-01  3.5696764692227607e-02  4.2532625259542788e-02  4.1999536603399411e-02  6.1496364006597318e-02  1.6979714833741771e-01  1.7392194113554613e-01  5.2670153384000484e-01  5.3082551493300889e-01  1.7058526393328582e-01  1.7552564642844828e-01  5.2748980471283458e-01  5.3243291921978952e-01  1.8042169999722513e-01  5.3751946582434662e-01  5.5932795670929703e-01  5.6838452353082425e-01  5.6164600334215864e-01  3.0429068648461684e-02  9.0427829496593490e-02  9.8096843899372163e-02  2.0183603759170970e-01  3.0765302562509378e-01  1.3297666432529570e-01  4.8999045540737002e-01  8.3989767989152656e-02  3.9117643798557933e-01  5.4197502556818833e-01  6.9198946611808632e-01  6.1310062265465293e-01  4.8130139245515441e-01  1.2506381204845093e-01  1.0046072815380711e-02  4.5455273292974779e-01  3.2779708202202468e-01  9.6427035376464326e-02  1.6255191598116769e-01  5.1945460666518339e-01  4.9732534451943256e-01  1.4045118300976983e-01  1.9118379155485957e-01  1.9612978337137249e-01  1.9175052889781041e-01  3.3261412318869782e-01  7.7775556056441153e-01  7.5426681449242017e-01  3.8912545451249286e-01  3.7669274976574946e-01  7.7786076490935097e-01  2.4448041595034617e-01  3.2186296403880460e-01  3.2500158593545847e-01  1.1757963803703179e-01  6.4943785418645150e-01  5.7525987579418358e-01  4.1980826980686797e-01  3.6385939708655479e-01  2.0760932135496671e-01  2.3738437830167947e-01  6.1736867179056309e-01  6.8135458600838894e-01  6.7862369044664206e-01  2.8558645168881358e-01  1.8505775375123451e-01  3.4236945397315061e-01  4.4000939476503559e-01  3.0239477382340063e-01  1.0580872181419590e-01  3.0677518574575763e-01  6.6483824286177107e-01  6.8626312585352134e-01  2.5955196391705824e-02  6.9426108798598984e-01  2.2467987581270551e-02  6.5812905809662614e-01  5.6436577151511436e-01  2.2159464361106837e-01  1.1169921185878476e-01  1.9043249609724150e-01  1.0638336336921619e-01  7.5441606394043459e-01  7.2082422115288969e-01  3.5204892393618625e-01  4.3036375966675827e-01  7.6561365361549527e-01  6.9843053370378705e-01  9.5188821614712191e-02  1.2878198119142020e-01  4.8554473477555754e-01  4.9682878221657428e-01  1.3997228593301089e-01  4.7403354352676630e-01  3.0837046552791414e-01  7.2794633374975895e-02  1.5117585348303153e-01  5.0806142517940411e-01  5.1926948866165734e-01  1.6237033785711943e-01  3.3411949042403649e-01  4.4834562742219630e-01  1.7356804142570809e-01  5.3047177603007822e-01  5.4166856344645098e-01  1.8476222727005109e-01  5.0400311148144951e-02  1.9596155091437151e-01  2.0716032123370379e-01  7.0962776069247624e-01  6.8723332004816429e-01  5.9206110279568258e-01  5.8645958570770473e-01  5.9765443118003458e-01  5.5286670776282865e-01  2.5755163590724994e-01  2.5194996902827321e-01  2.6314962315683493e-01  6.4244163690909828e-01  6.3684770073580277e-01  6.3124607780510122e-01  2.9689392117295160e-01  6.7603535808094650e-01  2.8008347423013114e-02  1.6801115941222289e-02  4.0545549847016477e-01  5.5988107410437143e-03  3.2034293338157593e-01  4.6210194686160877e-01  2.4074805345610617e-01  6.2005074671888072e-01  2.1835965806256200e-01  3.7243341084284641e-02  4.7022482207005700e-01  4.5011880192556908e-01  2.7749002966097591e-01  4.7955889413699104e-01  7.2206541980683892e-01  1.7312135700137815e-02  1.9946440587449037e-02  1.2959923261348550e-02  5.4837096960832443e-01  4.7438209076309751e-01  5.0618537079751391e-01  1.4929219910000513e-01  5.4307014920302443e-01  5.3264953228680217e-02  1.2234125452319183e-01  3.2922400135603702e-01  6.8458043602723428e-01  8.4135671870612827e-02  4.5313785067051365e-01  4.4853752890646070e-01  1.9657958999181074e-01  3.4695125408299476e-01  1.4361534897688347e-01  5.0055789692173458e-01  5.4794704820547202e-01  6.5567689645701588e-01  6.8145513259063362e-01  7.3431319553180707e-01  5.2907657665083659e-02  3.1527105812886164e-01  8.4428737626034756e-02  5.6593612901664381e-01  1.6488900970559864e-01  5.2179334388841103e-01  4.6949479715127324e-01  2.2871306157769944e-01  1.8616287540166965e-01  6.8234323437404165e-01  5.8130395770936216e-01  5.6469515961683658e-01  2.1189615732974890e-01  5.5464512791342324e-01  7.5581732161214232e-01  2.6608060356108014e-02  2.9242806797444865e-01  5.8561785345117368e-01  3.1293182099234462e-01  5.7498188646224924e-01  7.3454164694125834e-01  7.6644828518031660e-01  1.5974288137628571e-02  4.7880072251932554e-02  5.5370854887673981e-01  2.3934948617501617e-01  6.1753070643065822e-01  2.8185767473613110e-01  6.6008030033880760e-01  1.0106028069742985e-01  7.0262662232532203e-01  7.9790379775551368e-02  3.0287127800185909e-01  5.8517465240248888e-02  6.3880624055393409e-01  2.4998579430248413e-01  2.1807265373328838e-01  6.7071929049009971e-01  3.0140522350138976e-01  7.8240835428047750e-01  4.5443340472648058e-01  5.2902559646533820e-01  3.0030003475642081e-01  3.2670633258663556e-01  2.82856599041