<?xml version="1.0"?>
<VTKFile type="UnstructuredGrid"  version="0.1"  >
<UnstructuredGrid>
<Piece  NumberOfPoints="2401" NumberOfCells="4608">
<Points>
<DataArray  type="Float64"  NumberOfComponents="3"  format="ascii">0 0 0  0.001070538380698371 0 0  0.004277569313095364 0 0  0.009607359798386061 0 0  0.01703708685546806 0 0  0.02653493525245065 0 0  0.03806023374436157 0 0  0.05156362923366253 0 0  0.06698729810778931 0 0  0.08426519384873815 0 0  0.1033233298543955 0 0  0.1240800962605269 0 0  0.1464466094067445 0 0  0.1703270924499866 0 0  0.1956192854956637 0 0  0.2222148834902257 0 0  0.2500000000000299 0 0  0.2788556548905322 0 0  0.308658283817491 0 0  0.339280267348458 0 0  0.3705904774487813 0 0  0.4024548389919803 0 0  0.4347369038900211 0 0  0.467298435384978 0 0  0.5000000000000517 0 0  0.5327015646151253 0 0  0.5652630961100813 0 0  0.5975451610081212 0 0  0.6294095225513188 0 0  0.6607197326516399 0 0  0.6913417161826045 0 0  0.7211443451095605 0 0  0.7500000000000597 0 0  0.7777851165098603 0 0  0.8043807145044185 0 0  0.829672907550091 0 0  0.8535533905933287 0 0  0.8759199037395413 0 0  0.8966766701456674 0 0  0.9157348061513193 0 0  0.9330127018922625 0 0  0.9484363707663832 0 0  0.961939766255678 0 0  0.9734650647475827 0 0  0.9829629131445586 0 0  0.9903926402016341 0 0  0.9957224306869181 0 0  0.9989294616193084 0 0  1 0 0  0 0.02083333333333333 0  0.001070538380698371 0.02083333333333333 0  0.004277569313095364 0.02083333333333333 0  0.009607359798386061 0.02083333333333333 0  0.01703708685546806 0.02083333333333333 0  0.02653493525245065 0.02083333333333333 0  0.03806023374436157 0.02083333333333333 0  0.05156362923366253 0.02083333333333333 0  0.06698729810778931 0.02083333333333333 0  0.08426519384873815 0.02083333333333333 0  0.1033233298543955 0.02083333333333333 0  0.1240800962605269 0.02083333333333333 0  0.1464466094067445 0.02083333333333333 0  0.1703270924499866 0.02083333333333333 0  0.1956192854956637 0.02083333333333333 0  0.2222148834902257 0.02083333333333333 0  0.2500000000000299 0.02083333333333333 0  0.2788556548905322 0.02083333333333333 0  0.308658283817491 0.02083333333333333 0  0.339280267348458 0.02083333333333333 0  0.3705904774487813 0.02083333333333333 0  0.4024548389919803 0.02083333333333333 0  0.4347369038900211 0.02083333333333333 0  0.467298435384978 0.02083333333333333 0  0.5000000000000517 0.02083333333333333 0  0.5327015646151253 0.02083333333333333 0  0.5652630961100813 0.02083333333333333 0  0.5975451610081212 0.02083333333333333 0  0.6294095225513188 0.02083333333333333 0  0.6607197326516399 0.02083333333333333 0  0.6913417161826045 0.02083333333333333 0  0.7211443451095605 0.02083333333333333 0  0.7500000000000597 0.02083333333333333 0  0.7777851165098603 0.02083333333333333 0  0.8043807145044185 0.02083333333333333 0  0.829672907550091 0.02083333333333333 0  0.8535533905933287 0.02083333333333333 0  0.8759199037395413 0.02083333333333333 0  0.8966766701456674 0.02083333333333333 0  0.9157348061513193 0.02083333333333333 0  0.9330127018922625 0.02083333333333333 0  0.9484363707663832 0.02083333333333333 0  0.961939766255678 0.02083333333333333 0  0.9734650647475827 0.02083333333333333 0  0.9829629131445586 0.02083333333333333 0  0.9903926402016341 0.02083333333333333 0  0.9957224306869181 0.02083333333333333 0  0.9989294616193084 0.02083333333333333 0  1 0.02083333333333333 0  0 0.04166666666666666 0  0.001070538380698371 0.04166666666666666 0  0.004277569313095364 0.04166666666666666 0  0.009607359798386061 0.04166666666666666 0  0.01703708685546806 0.04166666666666666 0  0.02653493525245065 0.04166666666666666 0  0.03806023374436157 0.04166666666666666 0  0.05156362923366253 0.04166666666666666 0  0.06698729810778931 0.04166666666666666 0  0.08426519384873815 0.04166666666666666 0  0.1033233298543955 0.04166666666666666 0  0.1240800962605269 0.04166666666666666 0  0.1464466094067445 0.04166666666666666 0  0.1703270924499866 0.04166666666666666 0  0.1956192854956637 0.04166666666666666 0  0.2222148834902257 0.04166666666666666 0  0.2500000000000299 0.04166666666666666 0  0.2788556548905322 0.04166666666666666 0  0.308658283817491 0.04166666666666666 0  0.339280267348458 0.04166666666666666 0  0.3705904774487813 0.04166666666666666 0  0.4024548389919803 0.04166666666666666 0  0.4347369038900211 0.04166666666666666 0  0.467298435384978 0.04166666666666666 0  0.5000000000000517 0.04166666666666666 0  0.5327015646151253 0.04166666666666666 0  0.5652630961100813 0.04166666666666666 0  0.5975451610081212 0.04166666666666666 0  0.6294095225513188 0.04166666666666666 0  0.6607197326516399 0.04166666666666666 0  0.6913417161826045 0.04166666666666666 0  0.7211443451095605 0.04166666666666666 0  0.7500000000000597 0.04166666666666666 0  0.7777851165098603 0.04166666666666666 0  0.8043807145044185 0.04166666666666666 0  0.829672907550091 0.04166666666666666 0  0.8535533905933287 0.04166666666666666 0  0.8759199037395413 0.04166666666666666 0  0.8966766701456674 0.04166666666666666 0  0.9157348061513193 0.04166666666666666 0  0.9330127018922625 0.04166666666666666 0  0.9484363707663832 0.04166666666666666 0  0.961939766255678 0.04166666666666666 0  0.9734650647475827 0.04166666666666666 0  0.9829629131445586 0.04166666666666666 0  0.9903926402016341 0.04166666666666666 0  0.9957224306869181 0.04166666666666666 0  0.9989294616193084 0.04166666666666666 0  1 0.04166666666666666 0  0 0.0625 0  0.001070538380698371 0.0625 0  0.004277569313095364 0.0625 0  0.009607359798386061 0.0625 0  0.01703708685546806 0.0625 0  0.02653493525245065 0.0625 0  0.03806023374436157 0.0625 0  0.05156362923366253 0.0625 0  0.06698729810778931 0.0625 0  0.08426519384873815 0.0625 0  0.1033233298543955 0.0625 0  0.1240800962605269 0.0625 0  0.1464466094067445 0.0625 0  0.1703270924499866 0.0625 0  0.1956192854956637 0.0625 0  0.2222148834902257 0.0625 0  0.2500000000000299 0.0625 0  0.2788556548905322 0.0625 0  0.308658283817491 0.0625 0  0.339280267348458 0.0625 0  0.3705904774487813 0.0625 0  0.4024548389919803 0.0625 0  0.4347369038900211 0.0625 0  0.467298435384978 0.0625 0  0.5000000000000517 0.0625 0  0.5327015646151253 0.0625 0  0.5652630961100813 0.0625 0  0.5975451610081212 0.0625 0  0.6294095225513188 0.0625 0  0.6607197326516399 0.0625 0  0.6913417161826045 0.0625 0  0.7211443451095605 0.0625 0  0.7500000000000597 0.0625 0  0.7777851165098603 0.0625 0  0.8043807145044185 0.0625 0  0.829672907550091 0.0625 0  0.8535533905933287 0.0625 0  0.8759199037395413 0.0625 0  0.8966766701456674 0.0625 0  0.9157348061513193 0.0625 0  0.9330127018922625 0.0625 0  0.9484363707663832 0.0625 0  0.961939766255678 0.0625 0  0.9734650647475827 0.0625 0  0.9829629131445586 0.0625 0  0.9903926402016341 0.0625 0  0.9957224306869181 0.0625 0  0.9989294616193084 0.0625 0  1 0.0625 0  0 0.08333333333333333 0  0.001070538380698371 0.08333333333333333 0  0.004277569313095364 0.08333333333333333 0  0.009607359798386061 0.08333333333333333 0  0.01703708685546806 0.08333333333333333 0  0.02653493525245065 0.08333333333333333 0  0.03806023374436157 0.08333333333333333 0  0.05156362923366253 0.08333333333333333 0  0.06698729810778931 0.08333333333333333 0  0.08426519384873815 0.08333333333333333 0  0.1033233298543955 0.08333333333333333 0  0.1240800962605269 0.08333333333333333 0  0.1464466094067445 0.08333333333333333 0  0.1703270924499866 0.08333333333333333 0  0.1956192854956637 0.08333333333333333 0  0.2222148834902257 0.08333333333333333 0  0.2500000000000299 0.08333333333333333 0  0.2788556548905322 0.08333333333333333 0  0.308658283817491 0.08333333333333333 0  0.339280267348458 0.08333333333333333 0  0.3705904774487813 0.08333333333333333 0  0.4024548389919803 0.08333333333333333 0  0.4347369038900211 0.08333333333333333 0  0.467298435384978 0.08333333333333333 0  0.5000000000000517 0.08333333333333333 0  0.5327015646151253 0.08333333333333333 0  0.5652630961100813 0.08333333333333333 0  0.5975451610081212 0.08333333333333333 0  0.6294095225513188 0.08333333333333333 0  0.6607197326516399 0.08333333333333333 0  0.6913417161826045 0.08333333333333333 0  0.7211443451095605 0.08333333333333333 0  0.7500000000000597 0.08333333333333333 0  0.7777851165098603 0.08333333333333333 0  0.8043807145044185 0.08333333333333333 0  0.829672907550091 0.08333333333333333 0  0.8535533905933287 0.08333333333333333 0  0.8759199037395413 0.08333333333333333 0  0.8966766701456674 0.08333333333333333 0  0.9157348061513193 0.08333333333333333 0  0.9330127018922625 0.08333333333333333 0  0.9484363707663832 0.08333333333333333 0  0.961939766255678 0.08333333333333333 0  0.9734650647475827 0.08333333333333333 0  0.9829629131445586 0.08333333333333333 0  0.9903926402016341 0.08333333333333333 0  0.9957224306869181 0.08333333333333333 0  0.9989294616193084 0.08333333333333333 0  1 0.08333333333333333 0  0 0.1041666666666667 0  0.001070538380698371 0.1041666666666667 0  0.004277569313095364 0.1041666666666667 0  0.009607359798386061 0.1041666666666667 0  0.01703708685546806 0.1041666666666667 0  0.02653493525245065 0.1041666666666667 0  0.03806023374436157 0.1041666666666667 0  0.05156362923366253 0.1041666666666667 0  0.06698729810778931 0.1041666666666667 0  0.08426519384873815 0.1041666666666667 0  0.1033233298543955 0.1041666666666667 0  0.1240800962605269 0.1041666666666667 0  0.1464466094067445 0.1041666666666667 0  0.1703270924499866 0.1041666666666667 0  0.1956192854956637 0.1041666666666667 0  0.2222148834902257 0.1041666666666667 0  0.2500000000000299 0.1041666666666667 0  0.2788556548905322 0.1041666666666667 0  0.308658283817491 0.1041666666666667 0  0.339280267348458 0.1041666666666667 0  0.3705904774487813 0.1041666666666667 0  0.4024548389919803 0.1041666666666667 0  0.4347369038900211 0.1041666666666667 0  0.467298435384978 0.1041666666666667 0  0.5000000000000517 0.1041666666666667 0  0.5327015646151253 0.1041666666666667 0  0.5652630961100813 0.1041666666666667 0  0.5975451610081212 0.1041666666666667 0  0.62
[...]
<CellData  Scalars="f_2078415"> 
<DataArray  type="Float64"  Name="f_2078415"  format="ascii">8.9058314211669270e+01   1.0898462247331138e+02   6.8191163784644402e+01   5.3573018840665235e+01   8.6619085901919149e+01   5.2874259203075212e+01   1.1743611590497545e+02   7.2081299392876645e+01   1.7491016343358712e+02   1.2891117002937074e+02   1.8393970515746659e+02   1.5635537592598564e+02   2.3663558868313595e+02   2.0395892155663134e+02   2.1135628373550449e+02   1.5619796812549473e+02   1.9593690256894510e+02   1.5633508586118765e+02   2.7123480587108173e+02   1.7865523365562191e+02   2.8676502479407128e+02   1.8224626474786089e+02   3.0303577915485033e+02   1.8376029626956799e+02   3.2916154669761096e+02   2.5576166558532901e+02   4.0834388894015268e+02   3.5376453112342733e+02   3.1404212324185164e+02   2.5195387839511775e+02   3.1700100457354745e+02   2.4127589431923377e+02   3.3183031133661518e+02   2.7892937412129470e+02   2.4121231238797927e+02   2.0539536311669949e+02   1.8126165524229310e+02   1.4066316575807852e+02   2.5642834959144972e+02   1.3263614285171678e+02   3.3074719919053314e+02   2.0329340299424084e+02   4.1803583481406690e+02   2.7254420052008044e+02   4.2088281435308784e+02   3.5410338265661937e+02   3.9319473631514694e+02   3.1839090922800943e+02   2.9739828290093055e+02   2.2703458463182827e+02   2.9968804648107351e+02   2.2391556519396187e+02   3.7782232513820895e+02   2.8373091514641004e+02   2.5114380108316215e+02   2.6098088565620657e+02   2.1426603495748012e+02   1.5860791338040596e+02   2.3115447048643608e+02   1.6833165088854960e+02   2.7904514294365003e+02   2.0736699993377692e+02   2.2145093516968385e+02   2.7192511427617001e+02   1.7355579955728996e+02   1.6045205560506437e+02   2.2950653412038253e+02   1.9227848266302331e+02   1.8943164216893280e+02   1.4889479724213362e+02   1.6836851930087579e+02   1.2146189017458899e+02   1.6462000846214210e+02   1.3847878271235805e+02   1.6222627766399950e+02   1.1895840963518202e+02   1.6835076800698698e+02   9.4307164236673060e+01   1.8281647542221344e+02   1.3987340338310591e+02   1.8155727796931876e+02   1.5070673578447062e+02   1.7068918521633373e+02   1.5675160572140246e+02   1.5251162683341184e+02   1.3798073210924898e+02   1.2784138179301961e+02   1.0866029984613905e+02   9.7456655684699825e+01   7.9529566363487206e+01   6.9001557192726381e+01   5.8027546491698963e+01   6.5965185608403942e+01   5.0664964227267163e+01   1.2857856283660493e+02   1.6276022043866121e+02   8.9523327147047894e+01   1.8396919644187324e+02   5.9599767389341181e+01   8.3299608550778402e+01   5.5878205594823115e+01   7.4805741219719408e+01   9.0010419459872537e+01   1.0355433132788062e+02   1.1471311494724350e+02   9.1248861494899813e+01   1.0977267958904896e+02   1.1457893049149801e+02   1.9727259550753885e+02   1.0745590150453022e+02   2.3341119070690723e+02   2.9076633443627600e+02   5.0759286947581295e+01   1.8896111531005405e+02   1.5382599476309392e+02   9.0485491665483011e+01   1.6904051018214309e+02   1.8966341793392672e+02   2.1134714252792483e+02   1.8629997325429710e+02   1.3687735064705544e+02   2.1870126662197060e+02   3.0180350601153748e+02   1.9273395841461684e+02   2.2272668059048169e+02   2.6245155518045698e+02   1.1633715293018636e+02   2.2119296886394264e+02   2.0719907808331860e+02   1.7025051248050565e+02   2.0611928207334444e+02   2.2421782162170800e+02   4.8462682831900700e+01   1.8042180552378281e+02   1.1109119297968212e+02   7.9120386928356012e+01   2.3993603386620669e+02   2.0830299330748409e+02   2.4232452712571887e+02   2.9297969515030223e+02   2.2904517342224446e+02   2.4541431393533767e+02   2.6229442172372467e+02   2.8673770433649531e+02   1.8782205876803894e+02   2.2218065586812125e+02   1.4479827230629954e+02   1.6059340092068294e+02   2.9551747696951281e+02   2.6819469676008191e+02   1.5175516962297220e+02   2.6968284938370812e+02   1.1273434736193231e+02   8.2524880068440595e+01   1.0752049757795288e+02   1.0667966608302324e+02   3.2257445407087056e+02   2.5434803886053786e+02   3.8050170582166839e+02   4.5443211935573862e+02   1.8899282561406528e+02   2.7187390837530654e+02   2.6974964291610661e+02   3.1254816946039307e+02   9.0431434884871436e+01   2.1728316149294440e+02   7.2810301837362601e+01   6.2809627526621156e+01   1.0124167435101432e+02   8.8081760563091734e+01   4.9357761658675500e+01   9.4675408975420240e+01   1.3773940768533734e+02   1.1437488878910715e+02   8.1160129583338403e+01   1.4260075277746810e+02   1.3217170857038855e+02   1.1344321439216880e+02   1.6617902572051511e+02   1.7296526937748627e+02   1.5149816487600131e+02   1.8246474970833106e+02   1.1302740473417441e+02   1.5310521876405696e+02   6.8907116407915638e+01   1.0847253519627257e+02   4.1476235700021078e+01   6.6702744449139601e+01   7.6264862748541546e+01   7.2001167821989043e+01   3.4970758666475274e+02   3.6196494456037146e+02   2.1454947388794074e+02   2.9230975591054852e+02   1.4165422838561341e+02   1.7748761913830623e+02   1.3831179769958476e+02   1.7325681633579305e+02   1.4503463869722830e+02   1.5815876823258699e+02   9.1068168545804795e+01   1.4997331884672428e+02   7.6867803974372492e+01   5.9017141421314228e+01   1.0317157637367953e+02   8.5364567379211550e+01   2.7705622659203527e+02   1.4201220395231476e+02   2.4950915459524546e+02   3.0692489036298093e+02   5.4919456582871042e+01   1.5324838280881710e+02   1.2424437552501514e+02   6.6667349887270518e+01   1.6080212828218166e+02   1.2676295603661472e+02   2.8105045491875131e+02   2.0945499392373182e+02   1.4760031123872295e+02   2.1948020480919124e+02   2.2493032266636948e+02   1.1746166385184544e+02   2.6540671243321640e+02   2.1864539846900078e+02   1.9330695556928197e+02   1.9895067522009847e+02   3.7533539878876849e+02   3.7699488156861588e+02   1.7525378156138134e+02   3.2716726549474140e+02   7.5371501537521212e+01   6.8737092947729920e+01   3.0311408164961688e+02   2.1810479259753384e+02   3.9271409264050590e+02   4.0334530407995567e+02   2.6746539651922075e+02   2.8710381861835589e+02   3.5071818831851107e+02   3.4924275495918562e+02   2.2585227347736631e+02   2.4278145405009420e+02   1.6369292995475848e+02   2.1924710082116096e+02   3.4040514702255155e+02   2.5812498834402857e+02   2.0901702453426688e+02   3.0712904272032989e+02   8.8253287286763069e+01   9.3484143137875890e+01   9.8218230133926909e+01   1.0031878985492968e+02   3.5031917832291890e+02   2.1965918261394688e+02   4.9919941145538502e+02   4.7866036526495333e+02   2.6378323720487799e+02   3.1992528431786832e+02   3.8216793717328011e+02   3.7742200340236923e+02   1.9220952528351128e+02   2.9763943244380658e+02   5.4425094101093222e+01   6.3210564825776537e+01   9.7017299742487268e+01   7.2654508406094948e+01   6.1568869458004663e+01   8.8732746255730689e+01   1.5937401971776882e+02   9.7236701995667389e+01   1.4502590016648082e+02   1.7514525104396338e+02   9.6521624311526821e+01   7.3841119318217849e+01   1.3947596766549734e+02   8.8387853677389771e+01   1.5738443085698805e+02   1.1057887968951427e+02   1.4263282377480013e+02   1.1053684188557970e+02   1.1466799983161374e+02   9.8632489290338469e+01   9.5054356739698122e+01   8.5690852535945083e+01   1.4753114644990072e+02   1.1273491883709310e+02   5.8741338790222756e+02   4.2559453192317130e+02   2.0285919074021896e+02   3.7597187514011102e+02   1.7934089693101151e+02   1.3961281129165835e+02   1.7550904601865790e+02   1.4296358149479684e+02   1.5226938686214001e+02   1.3301174522182322e+02   1.0820695854808874e+02   1.0013839095152696e+02   5.7709039374321314e+01   6.4138336701182965e+01   7.3924858026795533e+01   5.3457475454252545e+01   1.6127094867759396e+02   1.2978563016356108e+02   2.5701359493702023e+02   2.2196763075123076e+02   1.5765723644512070e+02   2.0332161167208477e+02   5.3474009045669767e+01   5.0994348443182162e+01   1.1781661385171411e+02   9.3469228903306586e+01   1.8544034234782356e+02   1.5646505662268456e+02   2.2827033255171807e+02   2.5667201111844275e+02   9.5107712315050634e+01   1.6176088605523964e+02   9.3948506381334184e+01   9.6904539928913181e+01   2.6552254368717865e+02   1.9561233470536672e+02   4.4204054368342292e+02   3.4232873429127130e+02   2.5668837033866993e+02   3.7242794262982602e+02   6.6655953548936481e+01   5.3807677147419859e+01   2.9058146819876401e+02   1.8873596783975631e+02   3.9394965554468894e+02   3.7867191943324508e+02   2.2926966464237779e+02   2.7808974770703264e+02   3.1283933691058525e+02   2.5790924726028675e+02   2.7384999421181448e+02   2.3511236593967871e+02   2.2013066081065091e+02   3.2932274539342558e+02   2.6753570857351781e+02   1.7655797100082870e+02   2.0260853364031541e+02   2.6992002671003922e+02   9.4481340923474789e+01   9.9323595176365103e+01   2.3050040597413579e+02   1.9749040619688958e+02   2.5005793462327486e+02   2.6214806807831724e+02   3.9848325089852000e+02   3.0046692741059388e+02   2.4755016873531284e+02   2.6264323929054046e+02   3.8024700541457457e+02   3.3703993533704659e+02   2.2319482590333229e+02   3.0372918141233953e+02   5.1988223380758910e+01   7.1373989939080303e+01   8.0235282098987241e+01   6.2763227339022194e+01   1.1897561468306233e+02   1.2336372265188430e+02   1.1124654774367912e+02   1.2446051796339759e+02   1.1517330109307922e+02   1.0261023949978706e+02   6.8931177905757551e+01   7.4302589164291021e+01   5.1049690663166700e+01   5.8926819877609212e+01   4.8860677905889219e+01   5.3787377079594719e+01   5.9321715772331849e+01   6.1833936888849067e+01   7.2728204044551575e+01   7.4503498153473927e+01   8.3913468491481069e+01   8.6396868841284828e+01   1.1670904971442806e+02   9.4545689498231937e+01   6.1415156700502644e+02   3.1133332680977077e+02   3.0852286125975633e+02   4.5677509196737338e+02   6.2880381664714008e+01   7.7393667193363470e+01   5.6526998737434511e+01   5.5274248288793963e+01   4.7998757166514807e+01   5.0642793026728661e+01   4.7029425100291583e+01   5.4412838248925844e+01   1.0612564567873694e+02   8.3734447229358977e+01   7.9989509255798211e+01   1.3573024498700477e+02   1.3482499252361413e+02   7.9134901452311155e+01   2.3542810518962006e+02   1.7938123109905365e+02   1.3277985380796943e+02   1.8842211872203393e+02   6.6838320082166618e+01   9.0208916909395469e+01   8.2711790749691730e+01   6.8947665351446375e+01   2.5136052914378570e+02   2.0350416139960905e+02   3.3315883054088948e+02   3.7536696125889807e+02   1.2498360350213309e+02   2.6330703083623666e+02   9.8580980537591657e+01   6.4161165421405983e+01   1.5961173804840018e+02   9.8445876750450935e+01   3.4817285141528998e+02   1.9907343501093899e+02   2.0540275954677702e+02   2.6189519879395289e+02   6.4653128015882487e+01   4.9315925350497821e+01   2.1406503241984421e+02   1.3385947245226288e+02   3.3666378431291753e+02   2.6879725331233448e+02   2.0502230990125815e+02   2.5379781549940250e+02   1.7187587142531527e+02   1.1346394828649751e+02   2.8378282144139479e+02   2.1402489617873530e+02   3.1463257628158965e+02   3.6230428321229556e+02   1.6193967029940669e+02   2.0309910069480105e+02   1.5507338427346184e+02   1.8058456677934572e+02   1.1076576343889876e+02   1.0947064878321335e+02   3.5571443676940413e+02   2.4523765751910815e+02   2.8566095690443188e+02   4.2506099711078832e+02   1.9354429226790853e+02   1.5714943412142574e+02   1.6910516340731908e+02   1.7723265435427805e+02   2.9051500298739137e+02   2.0385712504534348e+02   2.0776077014873172e+02   2.4207138657806541e+02   7.2481975847019015e+01   8.6514152492873464e+01   1.4483070505386607e+02   1.3414032263101052e+02   1.3381350144160859e+02   1.8448712462112880e+02   1.2769038937459420e+02   1.6059389379867105e+02   6.8013041053661865e+01   1.2806519649200771e+02   9.9377209357029955e+01   1.0619221153996827e+02   1.4459534345708099e+02   1.6954226731593471e+02   1.6140644701345556e+02   2.1823851504054997e+02   1.5021210118641031e+02   2.1742513032683647e+02   1.2982451670563276e+02   1.8288852216186075e+02   1.1739997521180739e+02   1.4613040333283226e+02   1.1323167775113947e+02   1.2643495096487946e+02   3.4215538332069997e+02   2.2596298881693778e+02   2.7823615527147388e+02   4.1011991539078838e+02   1.9193951009746567e+02   2.5551757067475464e+02   1.8242390372961844e+02   2.6205509537741005e+02   1.4963405440413766e+02   2.4401108998699107e+02   9.5063672043030820e+01   1.8887153466285369e+02   9.5982942073242512e+01   1.1563755874938083e+02   1.1698714431846291e+02   9.9374241738854252e+01   8.5216816761712664e+01   8.2456652861259343e+01   2.1466025423834841e+02   1.7500793401406159e+02   2.5706154273746534e+02   3.3518747724067254e+02   8.2552435571049216e+01   1.8607559187159879e+02   6.3773256440786177e+01   5.6815990443517151e+01   3.1841981404015974e+02   2.3019837911359465e+02   4.6202401429381433e+02   4.6811641236786812e+02   2.0939564967593131e+02   3.5426887235382873e+02   6.1035882770437020e+01   4.9498334254116465e+01   1.7691458952742454e+02   1.4538541189764726e+02   1.5495736405180867e+02   2.2324415539303249e+02   8.7169903025415621e+01   1.4071689004443002e+02   6.5115780034835012e+01   6.3072332518360156e+01   1.7126792142680452e+02   1.3497999885888117e+02   2.2271441138486631e+02   2.1387463221327357e+02   1.5453135928531287e+02   1.9609727366702847e+02   5.1821112579806467e+01   5.9484848805428122e+01   2.4844556342160695e+02   1.3800825333554653e+02   3.3836314945887557e+02   3.3349228763429363e+02   1.7603049579984474e+02   2.5735015271038316e+02   9.3910763347722295e+01   1.0054941648290408e+02   1.2820839970988104e+02   1.1843840176886179e+02   3.3304977758230359e+02   1.8288873882616562e+02   3.5413896980126128e+02   4.0131975573678915e+02   1.6971884758521534e+02   1.6796350782657490e+02   1.2296012144314579e+02   1.7014965341893063e+02   1.5590163105314613e+02   8.4759942280268177e+01   1.4340007263591613e+02   1.3597973621632670e+02   9.1775947885204303e+01   1.0240641243907892e+02   1.9280937909136239e+02   1.3128535170352220e+02   2.2604807766027929e+02   2.4166826302103823e+02   2.7162735727058021e+02   2.5772652503420198e+02   2.2991885270516372e+02   2.9240383230829269e+02   1.4227028847183388e+02   1.9271018598392564e+02   2.2240512543178065e+02   1.8303886078218966e+02   2.8581797440368962e+02   2.6010696042415270e+02   2.7941800372500120e+02   2.8322736632925478e+02   2.3492902078563253e+02   2.5524968799425474e+02   1.9191269877174025e+02   2.1226654214837791e+02   1.8670946474588885e+02   1.8915408113410348e+02   4.0842175572329626e+02   2.9807231625608227e+02   4.4028174641246039e+02   5.4727134406070138e+02   3.7365426439774171e+02   4.0301931983183619e+02   3.8103394182025744e+02   4.1534692332895168e+02   3.5333540682949564e+02   4.0458739732821522e+02   2.7843847981955997e+02   3.3951527510323672e+02   1.4229905509436168e+02   2.1458058654033044e+02   9.9772793791264874e+01   1.3321263735277213e+02   1.0724518539450051e+02   9.7222948755675432e+01   2.4326218239551221e+02   1.5566680558071960e+02   4.0123520263192938e+02   3.8069221527020380e+02   1.6221854234968851e+02   2.8765487825790808e+02   5.1352605832923224e+01   6.1850129085067707e+01   3.4164078258126227e+02   2.3472730379793524e+02   5.1090665228657298e+02   4.8652172617399367e+02   2.4479594358398063e+02   3.8367444518369865e+02   4.5510253006093365e+01   3.8309642508907373e+01   2.9037965503512044e+02   2.2716252420150551e+02   3.1040189131520196e+02   3.9357108176270373e+02   1.3428658193762359e+02   2.4508072773277181e+02   5.7005973011895854e+01   5.9456049456205328e+01   3.2592607447236026e+02   2.6682544506500005e+02   2.8329287254259503e+02   4.3280891639780333e+02   1.4916720105629383e+02   2.2522172800233824e+02   6.1979306715302755e+01   9.2029417459676708e+01   1.6545527545496640e+02   9.1681642646508678e+01   2.7949758914463609e+02   2.3165263570569616e+02   1.9114783103030697e+02   2.2264834383650600e+02   1.0874223703513263e+02   9.4457065800048028e+01   1.4530760210614255e+02   1.5038589602247529e+02   1.9880605702384472e+02   1.2829258815337974e+02   2.9105725502713597e+02   2.6271467695141786e+02   1.6522225100147494e+02   2.0774385026148997e+02   1.3139557464770243e+02   1.7782741558831052e+02   7.3082076555827655e+01   6.3308823601095995e+01   7.6642476733381386e+01   7.8128973793552930e+01   1.1560611872129182e+02   8.4618642849544074e+01   1.8095744493566448e+02   1.6111919922726764e+02   2.0879584659090057e+02   2.2594700896554923e+02   1.9209495095434934e+02   1.5114671517461224e+02   2.3111083081579881e+02   1.6177380976755498e+02   1.6733858632676260e+02   1.3992825440990202e+02   1.4067380847497782e+02   1.0883138601972394e+02   1.9316539265394209e+02   1.7819742803770976e+02   2.0810385594401930e+02   2.2776184345428041e+02   1.8810770529067435e+02   2.1947689081071238e+02   1.6242347607618277e+02   1.8971238489528432e+02   1.5442784720298320e+02   1.6971929100890080e+02   2.7923495087652674e+02   1.6934164451438838e+02   3.7616229734986894e+02   6.7786135098396630e+02   2.7191246828944435e+02   3.0300309483742831e+02   2.8392323384271208e+02   2.6670595925670233e+02   2.8011724209531872e+02   2.5358918089994208e+02   2.4507642137059199e+02   2.4120636838321022e+02   1.8618463037322488e+02   2.0652190952222165e+02   9.2665802188201667e+01   1.4096749842048138e+02   1.0889921413630761e+02   1.3449548148536721e+02   2.3707374613646672e+02   2.0346110204305319e+02   3.7960954369064876e+02   3.1615577105422767e+02   1.9489723470653939e+02   2.7329260562847156e+02   5.3296853402078035e+01   6.7953380699415789e+01   3.3068648060088015e+02   2.2175910091149763e+02   4.9386994623705272e+02   4.5542390662758226e+02   2.4350528768333672e+02   3.6174546941534760e+02   4.0597843665312965e+01   4.0264330775362467e+01   3.7119873756537947e+02   2.5916640909227704e+02   4.3437592307793773e+02   4.8551370673029015e+02   2.0201406172471152e+02   3.1403985552406027e+02   6.9658536368609688e+01   6.3212819058891277e+01   4.8652860399488100e+02   3.4801430458124810e+02   5.4432225112249569e+02   6.6954168839368492e+02   2.3127179455317702e+02   3.6922507534983180e+02   1.5885835178213708e+02   2.4692679453799246e+02   1.1504574071462136e+02   1.5642037614197955e+02   2.0497747053004466e+02   1.3238711765234223e+02   1.6715216842653396e+02   1.9798402318520286e+02   5.9741883646082378e+01   8.0393471450275300e+01   2.3434748849908181e+02   1.7071379600518335e+02   2.0823087191712398e+02   2.7911954812436016e+02   1.9850029405635198e+02   1.8871109703854816e+02   1.8643202879087403e+02   2.1240213154937305e+02   1.1903588508513151e+02   1.1636132500113654e+02   9.0718412069601044e+01   1.1594301098710808e+02   1.4358876221645556e+02   1.6195393440643747e+02   1.6672272610391934e+02   2.2293051873436718e+02   1.8331770856083233e+02   2.5124831044405497e+02   2.0536635110138485e+02   2.2541678088956553e+02   1.3797407164362227e+02   1.7962981450392334e+02   6.9623351633069760e+01   9.6236409095101266e+01   5.1521029556892870e+01   4.7982153491777702e+01   1.2939170859357856e+02   7.9391090392963548e+01   2.6374596922955834e+02   2.1643992391439036e+02   3.3972032906975448e+02   3.2121596934461189e+02   3.2166968026489292e+02   3.3301190384201090e+02   2.7478377797432694e+02   2.8698482984162666e+02   2.7582622556489423e+02   2.6015116997227778e+02   2.6284424294297497e+02   3.6918597146830359e+02   6.0241895461004015e+02   7.3439133246412371e+02   4.2532367044989724e+02   4.5113789962668454e+02   3.9971159696345183e+02   4.2766957032246523e+02   3.6788682545894824e+02   4.0488583355094397e+02   3.1266829032745522e+02   3.4294736390437509e+02   2.1034684000867929e+02   2.5014074136971905e+02   1.6399420277335639e+02   1.4681598139284102e+02   1.5963379484246937e+02   1.7747715104440755e+02   2.3655452597841742e+02   2.5094358604551090e+02   2.9869966566918691e+02   2.6326012261422647e+02   1.3179541184926501e+02   2.0293233871659262e+02   6.0328764706287949e+01   7.2274424100001184e+01   2.9421524155571200e+02   1.8621034814734168e+02   4.3167433601552824e+02   3.8664955916783873e+02   2.1605