<?xml version="1.0"?>
<VTKFile type="UnstructuredGrid"  version="0.1"  >
<UnstructuredGrid>
<Piece  NumberOfPoints="2907" NumberOfCells="5077">
<Points>
<DataArray  type="Float64"  NumberOfComponents="3"  format="ascii">-20 2.5 0  -20 0 0  -1 0 0  -0.9996988186962042 0.02454122852291233 0  -0.9987954562051724 0.04906767432741797 0  -0.9972904566786902 0.07356456359966773 0  -0.9951847266721968 0.09801714032956083 0  -0.99247953459871 0.1224106751992163 0  -0.989176509964781 0.1467304744553618 0  -0.9852776423889412 0.1709618887603012 0  -0.9807852804032304 0.1950903220161286 0  -0.9757021300385285 0.21910124015687 0  -0.970031253194544 0.2429801799032641 0  -0.9637760657954398 0.2667127574748985 0  -0.9569403357322088 0.2902846772544624 0  -0.9495281805930367 0.3136817403988914 0  -0.9415440651830207 0.3368898533922203 0  -0.9329927988347388 0.3598950365349883 0  -0.9238795325112867 0.3826834323650899 0  -0.9142097557035307 0.4052413140049899 0  -0.9039892931234433 0.427555093430282 0  -0.8932243011955152 0.4496113296546069 0  -0.8819212643483549 0.4713967368259979 0  -0.8700869911087113 0.4928981922297841 0  -0.857728610000272 0.5141027441932218 0  -0.8448535652497071 0.5349976198870972 0  -0.8314696123025453 0.5555702330196022 0  -0.8175848131515836 0.5758081914178454 0  -0.8032075314806448 0.5956993044924335 0  -0.7883464276266062 0.6152315905806269 0  -0.773010453362737 0.6343932841636455 0  -0.7572088465064846 0.6531728429537766 0  -0.7409511253549589 0.6715589548470186 0  -0.7242470829514668 0.6895405447370671 0  -0.7071067811865475 0.7071067811865476 0  -0.6895405447370669 0.7242470829514669 0  -0.6715589548470184 0.740951125354959 0  -0.6531728429537765 0.7572088465064847 0  -0.6343932841636454 0.7730104533627371 0  -0.6152315905806267 0.7883464276266063 0  -0.5956993044924334 0.8032075314806449 0  -0.5758081914178453 0.8175848131515837 0  -0.555570233019602 0.8314696123025455 0  -0.534997619887097 0.8448535652497072 0  -0.5141027441932217 0.8577286100002721 0  -0.492898192229784 0.8700869911087115 0  -0.4713967368259977 0.881921264348355 0  -0.4496113296546067 0.8932243011955152 0  -0.4275550934302819 0.9039892931234434 0  -0.4052413140049897 0.9142097557035307 0  -0.3826834323650897 0.9238795325112867 0  -0.3598950365349882 0.9329927988347388 0  -0.3368898533922199 0.9415440651830208 0  -0.3136817403988914 0.9495281805930367 0  -0.2902846772544622 0.9569403357322089 0  -0.2667127574748983 0.9637760657954398 0  -0.2429801799032639 0.970031253194544 0  -0.2191012401568697 0.9757021300385286 0  -0.1950903220161282 0.9807852804032304 0  -0.1709618887603012 0.9852776423889412 0  -0.1467304744553616 0.989176509964781 0  -0.1224106751992162 0.99247953459871 0  -0.09801714032956065 0.9951847266721969 0  -0.07356456359966733 0.9972904566786902 0  -0.04906767432741801 0.9987954562051724 0  -0.02454122852291214 0.9996988186962042 0  6.123233995736766e-17 1 0  0.02454122852291226 0.9996988186962042 0  0.04906767432741813 0.9987954562051724 0  0.07356456359966745 0.9972904566786902 0  0.09801714032956077 0.9951847266721968 0  0.1224106751992163 0.99247953459871 0  0.1467304744553617 0.989176509964781 0  0.1709618887603014 0.9852776423889412 0  0.1950903220161283 0.9807852804032304 0  0.2191012401568698 0.9757021300385286 0  0.242980179903264 0.970031253194544 0  0.2667127574748984 0.9637760657954398 0  0.2902846772544623 0.9569403357322089 0  0.3136817403988916 0.9495281805930367 0  0.3368898533922201 0.9415440651830208 0  0.3598950365349883 0.9329927988347388 0  0.3826834323650898 0.9238795325112867 0  0.4052413140049899 0.9142097557035307 0  0.4275550934302822 0.9039892931234433 0  0.4496113296546066 0.8932243011955153 0  0.4713967368259978 0.8819212643483549 0  0.4928981922297841 0.8700869911087113 0  0.5141027441932217 0.8577286100002721 0  0.5349976198870973 0.844853565249707 0  0.5555702330196023 0.8314696123025452 0  0.5758081914178453 0.8175848131515837 0  0.5956993044924335 0.8032075314806448 0  0.6152315905806268 0.7883464276266062 0  0.6343932841636455 0.773010453362737 0  0.6531728429537768 0.7572088465064845 0  0.6715589548470183 0.7409511253549591 0  0.6895405447370669 0.7242470829514669 0  0.7071067811865476 0.7071067811865475 0  0.724247082951467 0.6895405447370668 0  0.7409511253549591 0.6715589548470183 0  0.7572088465064846 0.6531728429537768 0  0.773010453362737 0.6343932841636455 0  0.7883464276266063 0.6152315905806268 0  0.8032075314806449 0.5956993044924334 0  0.8175848131515837 0.5758081914178453 0  0.8314696123025452 0.5555702330196022 0  0.8448535652497071 0.5349976198870972 0  0.8577286100002721 0.5141027441932217 0  0.8700869911087115 0.492898192229784 0  0.881921264348355 0.4713967368259976 0  0.8932243011955153 0.4496113296546065 0  0.9039892931234433 0.4275550934302821 0  0.9142097557035307 0.4052413140049899 0  0.9238795325112867 0.3826834323650898 0  0.932992798834739 0.3598950365349881 0  0.9415440651830208 0.3368898533922201 0  0.9495281805930367 0.3136817403988915 0  0.9569403357322088 0.2902846772544623 0  0.9637760657954398 0.2667127574748984 0  0.970031253194544 0.2429801799032639 0  0.9757021300385286 0.2191012401568698 0  0.9807852804032304 0.1950903220161282 0  0.9852776423889412 0.1709618887603012 0  0.989176509964781 0.1467304744553617 0  0.99247953459871 0.1224106751992162 0  0.9951847266721969 0.0980171403295606 0  0.9972904566786902 0.07356456359966743 0  0.9987954562051724 0.04906767432741801 0  0.9996988186962042 0.02454122852291229 0  1 0 0  20 0 0  20 2.5 0  0 2.5 0  -10 2.5 0  10 2.5 0  -10.5 0 0  -5 2.5 0  10.5 0 0  5 2.5 0  -5.75 0 0  5.75 0 0  -15.25 0 0  -15 2.5 0  15.25 0 0  15 2.5 0  -17.625 0 0  -17.5 2.5 0  17.5 2.5 0  17.625 0 0  12.5 2.5 0  12.875 0 0  -12.5 2.5 0  -12.875 0 0  -2.5 2.5 0  2.5 2.5 0  -8.125 0 0  -7.5 2.5 0  8.125 0 0  7.5 2.5 0  -3.375 0 0  3.375 0 0  -18.75 2.5 0  20 1.25 0  16.4375 1.19375 0  -16.25 2.5 0  13.75 2.5 0  -14.0625 0 0  -11.6875 0 0  11.6875 0 0  8.75 2.5 0  -8.75 2.5 0  6.9375 0 0  6.25 2.5 0  -6.25 2.5 0  -9.3125 0 0  -6.9375 0 0  9.3125 0 0  11.25 2.5 0  -11.25 2.5 0  3.75 2.5 0  4.5625 0 0  -4.5625 0 0  -3.75 2.5 0  -13.75 2.5 0  14.0625 0 0  -16.4375 0 0  -20 1.25 0  -18.8125 0 0  18.75 2.5 0  -18.21875 1.2359375 0  18.125 1.278125 0  -15.84375 1.2125 0  -14.375 1.30859375 0  14.65625 1.203125 0  2.1875 0 0  -2.1875 0 0  13.125 1.315625 0  3.125 1.315625 0  -3.125 1.315625 0  -12.28125 1.1890625 0  -5.15625 1.184375 0  11.09375 1.184375 0  5.625 1.325 0  -10.97262068800044 1.220713793599868 0  9.375 1.32734375 0  -6.875 1.32734375 0  -9.67626828410207 1.24449497187193 0  8.061334925608099 1.312208731402025 0  -8.188665074391901 1.312208731402025 0  -1.25 2.5 0  1.25 2.5 0  4.37465139623265 1.41327350462657 0  16.25 2.5 0  6.84375467392576 1.430449641528851 0  -1.846573640185365 1.334702047669377 0  1.846573640185365 1.334702047669377 0  -17.02955351149946 1.396129584721571 0  16.4375 0 0  18.8125 0 0  -13.31314667860176 1.511193493282891 0  -4.122005747945582 0.961844908681634 0  12.12799425205442 0.961844908681634 0  15.54930641305724 1.660405980876393 0  19.0578783583929 0.9559530595267438 0  8.71875 0.6864560603786576 0  -7.53125 0.6864560603786576 0  -0.6257799091428727 1.819008129832856 0  0.6257799091428734 1.819008129832855 0  6.291331569065717 0.7194652423646902 0  -19.11204717950418 0.9044926794710327 0  -4.488713231834613 1.772186102355655 0  11.76128676816539 1.772186102355655 0  -19.28185607205105 1.781856072051052 0  19.30868080343342 1.808680803433421 0  9.90625 0.6371857066656857 0  -6.34375 0.6371857066656857 0  3.796921710049233 0.7617406159238448 0  7.392020585015773 0.7480839107774819 0  -8.910372062800235 0.7929553447587234 0  10.2506781820361 1.451853913138859 0  -5.999321817963904 1.451853913138859 0  4.957643119381741 0.7716423099297361 0  17.29984375 0.8640625 0  15.41193625859067 0.8279888354083842 0  -13.72251704931534 0.7728002662082776 0  16.875 2.5 0  17.12178336313261 1.690954734835967 0  -11.64001625260176 1.74572103154608 0  2.477726735235857 0.7850262278604345 0  13.46875 0 0  13.765625 0.7802887470308788 0  -2.78125 0 0  -2.477726735235857 0.7850262278604346 0  -10.33383379274331 1.744431431923121 0  13.91957519050334 1.653419259628842 0  -15.08147780274903 0.8341506893754731 0  -15.14066649024666 1.671962869821843 0  -8.950686484882164 1.678622661163363 0  -17.55392917606836 0.794731598412167 0  -16.80247533599675 0.6688259240674158 0  -12.94289066923278 0.7766744225472476 0  -9.90625 0 0  -10.31601468672093 0.7730817089126454 0  -18.21875 0 0  -12.28125 0 0  -17.68515668569534 1.768907656575843 0  18.21875 0 0  10.85059123027421 1.880344717307101 0  -5.399408769725794 1.880344717307101 0  -3.738137326223278 1.749164834446819 0  -3.125 2.5 0  12.46235897590077 1.601301060091387 0  -11.09375 0 0  -11.61661448001209 0.7781698802173554 0  -15.625 2.5 0  -1.764022608759088 0.6027229563180789 0  1.59375 0 0  -8.125 2.5 0  8.125 2.5 0  8.713468311289519 1.727645658498745 0  9.375 2.5 0  -7.536531688710481 1.727645658498745 0  -6.875 2.5 0  14.375 2.5 0  17.78381794101733 1.874391370085592 0  18.59891476281433 1.80649740393129 0  -18.58835555265984 1.824268641341969 0  1.806126122135773 0.6510673837470153 0  -16.875 2.5 0  -16.36681393636619 1.755298393865037 0  -16.13072438662071 0.6014017614895231 0  -13.92460230791385 1.83195710210235 0  -14.40198779087891 0.6105385965811564 0  20 0.625 0  19.40625 0 0  14.6875 1.888836596385542 0  14.65625 0 0  12.78248197181444 0.6991460920542635 0  -3.467518028185561 0.6991460920542635 0  13.125 2.5 0  2.491957142932539 1.738660596534321 0  3.125 2.5 0  1.875 2.5 0  3.718973573227002 1.75927763286174 0  -2.491957142932539 1.738660596534321 0  -1.875 2.5 0  -9.375 2.5 0  6.2001972846108 1.772767401802766 0  5.625 2.5 0  5.027483518098582 1.760895488350309 0  5.625981449127788 0.6566963631252629 0  -12.30101114679273 1.859484693920165 0  9.742489932362783 1.884363450023167 0  -6.507510067637216 1.884363450023166 0  1.13492303295015 1.283502262067074
[...]
<PointData  Scalars="f_16229600"> 
<DataArray  type="Float64"  Name="f_16229600"  format="ascii">1.0149917006945983e+00  1.0117358390227185e+00  1.0255134152643481e+00  1.0346702601351900e+00  1.0512353119997382e+00  1.1078968447529280e+00  1.1495874061503748e+00  1.1864632479930450e+00  1.2638998649879030e+00  1.3468603187477144e+00  1.4027473516257145e+00  1.5569445981104135e+00  1.6934998335981402e+00  1.8169597144220193e+00  1.9600362044294657e+00  2.1027716572359347e+00  2.2926226031689709e+00  2.4964504656694788e+00  2.7212498702287480e+00  2.9442832459105284e+00  3.2495158575947016e+00  3.5758715628420497e+00  3.8734134570067229e+00  4.3125974190708014e+00  4.7508873824021256e+00  5.1766155498498625e+00  5.7248209955353362e+00  6.1991895272887199e+00  6.6769740482118589e+00  7.4315336282490492e+00  8.2492476022111862e+00  9.2048233457327502e+00  9.8953682539303589e+00  1.0530361738778664e+01  1.1759684855095101e+01  1.2871883530609313e+01  1.3455828443141414e+01  1.5430784016408843e+01  1.7638758360828412e+01  1.9557863442957899e+01  2.0968143487310630e+01  2.3124977660491112e+01  2.5196655727994358e+01  2.6703792950620414e+01  2.8956158265063152e+01  3.1990716247709155e+01  3.2999224185765542e+01  3.4435066544162233e+01  3.9150662770724047e+01  4.3445021723618972e+01  4.6022418891381569e+01  4.7312587310232807e+01  5.0999401268818360e+01  5.7312102904423249e+01  6.1108154268437637e+01  6.5326634507061513e+01  6.7422149706180875e+01  7.0561553714012675e+01  7.2756198730240072e+01  7.3382994702954434e+01  7.9010795840563702e+01  8.0660678635234859e+01  8.3660786444619760e+01  8.4157619006587993e+01  8.5412773063991352e+01  8.9584186721902313e+01  8.9978191219605407e+01  9.0738897778600148e+01  8.4324687869881913e+01  8.1758826961889923e+01  7.5923764714307012e+01  7.7998789411104170e+01  7.6012606691137776e+01  7.0248791678549608e+01  6.5500466961905090e+01  5.8425518150601370e+01  5.3995725263596341e+01  4.6675882974060769e+01  4.0793870894022525e+01  3.6433860765572291e+01  3.0647041025980823e+01  2.7207131113435537e+01  2.3331393218132213e+01  1.8613203829930729e+01  1.4931569510338303e+01  1.1689207995017982e+01  9.1391760597630505e+00  7.5628817974140681e+00  6.1634225553890571e+00  3.8844099834244452e+00  2.8135731293213619e+00  2.0244904188507022e+00  1.6029980273862536e+00  6.5939597162696750e-01  4.6126907370021331e-01  2.8641762456907172e-01  1.0655795276036996e-01  -8.6400706801994451e-02  -4.3676416396265016e-02  -2.2374011238174122e-04  -4.4835164074775752e-02  3.6021521828099846e-02  2.0691053492840639e-01  2.4875105953393001e-01  3.8558053117658597e-01  5.1331468546957670e-01  5.2475277307416401e-01  6.4859524372765653e-01  6.9685248150276347e-01  8.4070767147989889e-01  8.7389913624263293e-01  8.9209314992382760e-01  8.6522952259567354e-01  9.1840565827245835e-01  9.8904834258416008e-01  1.0285625051712464e+00  9.8599210263810522e-01  1.0061795875775239e+00  1.0225440921569273e+00  1.0296518036263589e+00  9.7629344490358139e-01  9.7839267325325030e-01  9.7954237468020133e-01  9.8050977455507893e-01  9.8122411960586986e-01  9.5730040930298743e-01  9.4962276684213642e-01  9.4095606493476980e-01  9.5612902177947290e-01  9.5891643591026987e-01  9.5258592555699373e-01  9.9999999849717669e-01  9.9999998301789872e-01  3.7534506258502624e+01  9.9999995099956829e-01  9.9999849045133182e-01  1.0000005906124148e+00  9.9894859240717260e-01  1.0000107049264451e+00  1.0049736606100730e+00  1.0055182386148682e+00  9.9079729605602862e-01  9.9965321534834728e-01  1.0000534982025417e+00  1.0000000752367104e+00  9.9999998686481750e-01  9.9856290853966156e-01  1.0006067888111827e+00  9.9999999658326433e-01  9.9999998982363458e-01  9.9999951720716573e-01  1.0000017347334484e+00  1.0000017999946091e+00  9.9996870161140672e-01  9.3863787415720334e-01  1.7877405426281356e+00  1.0001695432673434e+00  9.9999364267432922e-01  9.9970609587326742e-01  1.0000810706633392e+00  1.1364009214815434e+00  8.9882147095820963e-01  1.0016215690000922e+00  9.9999980963447632e-01  9.9999978895417951e-01  1.0001891095401521e+00  9.9999993337256010e-01  9.9989616590025243e-01  9.9999347178715448e-01  1.0000062039721185e+00  9.9999849058872070e-01  9.9999887881493899e-01  9.9783246568738748e-01  1.0007203622050262e+00  9.9981489707165727e-01  1.0000223929411904e+00  1.0011083378882253e+00  9.9998605163317311e-01  9.9999820163142750e-01  1.0000005246994437e+00  1.0398675029772666e+00  9.6563781634290236e-01  1.0288799101496768e+00  9.8976479712565557e-01  9.9999786861842788e-01  1.0000004402401901e+00  9.9912939105482945e-01  1.0164891008849226e+00  1.0008917704228446e+00  9.9999999098781056e-01  1.0007977918275888e+00  9.9999980069783778e-01  1.0002639878884616e+00  1.0001108134836454e+00  9.9999967858240890e-01  7.3039762251800866e-01  1.6865704618265982e+00  9.9999886909214930e-01  1.2367861983289017e+00  1.0022387175044480e+00  1.0000087588187043e+00  9.9871096346051158e-01  9.9999538139932675e-01  1.0079181371734840e+00  1.0000016312966045e+00  1.0000183883126437e+00  9.9985013267313860e-01  9.9999833149232287e-01  1.0002544436752894e+00  9.9997187387347974e-01  2.0277566831683953e+00  2.7311813182864867e+01  1.0442804761763753e+00  1.0000000028275295e+00  1.0025002898421820e+00  1.3189521436640503e+00  3.8354283751344407e+00  1.0010734540507737e+00  1.0000000200099817e+00  9.9999998425298675e-01  1.0000545833696335e+00  1.0063385147078137e+00  9.9999933855680201e-01  9.9999981226492307e-01  9.9999976535515589e-01  9.9993840911226983e-01  1.0001141105032605e+00  6.4554103627408983e+00  8.4727277011853502e+01  9.9733368125662869e-01  1.0061079188425515e+00  9.8989778278719831e-01  9.9999341985709633e-01  1.0042092069801467e+00  9.9999991177374514e-01  9.9999833028260743e-01  1.0008451661398754e+00  9.7971983176841504e-01  9.9940264903517917e-01  1.0000095603943393e+00  9.9999311212845055e-01  9.9935598859089825e-01  9.8981455658598616e-01  9.9999973154881505e-01  9.9999973667494269e-01  9.9997300349090956e-01  1.0000000143826417e+00  9.9999988309841703e-01  1.0000084243450857e+00  1.0748367268614276e+00  1.0000009719896528e+00  9.9999994654952185e-01  1.3198345872784114e+00  1.2576372073633217e+00  1.0000005917418444e+00  9.9999924836234844e-01  9.9989829170485267e-01  1.0004378910775624e+00  9.9999096067180826e-01  9.9917800668246171e-01  9.9921242521139508e-01  9.9998958849826181e-01  1.0000049644997882e+00  9.9999993127080922e-01  9.9911085249960596e-01  9.9998576640260295e-01  1.0028967222501346e+00  9.9999999181759658e-01  9.9998879515435724e-01  9.9709658696671533e-01  9.7962693012736113e-01  9.7290410553347717e-01  9.9999657233045158e-01  9.9999732333698921e-01  9.9999787125607187e-01  1.0000608856403865e+00  1.9289380924263986e+00  6.1058080672877335e-01  9.9998867441183958e-01  1.0000236693444353e+00  1.0001368256397241e+00  1.0000000075185023e+00  9.9990919050127303e-01  9.9999502366939597e-01  9.9999995351510340e-01  9.9999994097402778e-01  9.9999992708544772e-01  1.0029494216994832e+00  1.0557208120851658e+00  1.0002191354905752e+00  1.0012571847772422e+00  9.9947928964912569e-01  1.0001220921338405e+00  9.9989533667354580e-01  9.9999972078286625e-01  9.9999996080541687e-01  9.9999970602011723e-01  1.0000002102181540e+00  1.0000006714290519e+00  1.0532532975861855e+00  9.9999987521886669e-01  2.0829862521101674e+00  1.0940356547792618e+00  5.5023820448939587e+00  1.1625522342249455e+00  9.8883939752992522e-01  9.4453990981354685e-01  9.9999966550672803e-01  1.0074795538920591e+00  1.0019452941626230e+00  1.0323795359775247e+00  9.9285695878571012e-01  1.0000206094675750e+00  1.0000012357436008e+00  9.9950187501112842e-01  2.1701230383909177e+01  2.9540887513943552e+00  1.0000030356262946e+00  1.0092534883870659e+00  1.0000025736687426e+00  1.0019789452561862e+00  9.9999989952039103e-01  9.4678397445693330e-01  1.0000000252987762e+00  9.9999973925710728e-01  1.0000484678264276e+00  9.9972981759570034e-01  1.0011986315952568e+00  1.2471312449576781e+00  1.2169015295895424e+01  1.0000032752731129e+00  1.0000034246176923e+00  1.0736714724863743e+00  9.9999773067235154e-01  1.0000030848604646e+00  9.9999973949911036e-01  1.0009350072749839e+00  9.9999807807685770e-01  1.0006647557419992e+00  1.0025817649687776e+00  1.0191965675634951e+00  1.0000141204461817e+00  1.0001610752111370e+00  1.0114609989284022e+00  3.5752125793464629e+01  1.0000003109969964e+00  1.0000000120103270e+00  1.0000009873049229e+00  9.9765788506929132e-01  9.9999934189272144e-01  9.9523629125097779e-01  6.8659178321866165e+01  9.3122759309314045e+00  9.9999999896854863e-01  1.0176034608363107e+00  9.9999993520108310e-01  9.9999999701818854e-01  9.9999865917557695e-01  9.9977117527060710e-01  1.0007885261065090e+00  9.9999832360911167e-01  9.9999972022425831e-01  1.0128561165624608e+00  1.0000087834247655e+00  9.9999982103522023e-01  1.0002526292939802e+00  9.9997003621570524e-01  1.0003957754324382e+00  9.9998852635656110e-01  1.0004279822773883e+00  9.9997975248376503e-01  2.5954645324898942e+00  9.9979529308662185e-01  9.9994153521278617e-01  9.7982656955870884e-01  1.0000538347945322e+00  9.9907484750686082e-01  9.3627298128435976e-01  1.0022774331922235e+00  1.0000061512925345e+00  9.9512523031867028e-01  1.0003822518038961e+00  9.9989718589381416e-01  9.9869580630232802e-01  9.9940424410639572e-01  8.2773443105325184e-01  9.9999999832929187e-01  1.3581936891246917e+00  9.9999808192788453e-01  9.5123664050778267e-01  1.0171608797724880e+00  1.0002823895936364e+00  9.9999972991103903e-01  9.6940351418392690e-01  9.9957322643605195e-01  1.0019603112095214e+00  9.9796945532440351e-01  9.9999976517132472e-01  1.0689383211712740e+00  9.9999981949741923e-01  1.0000218201710240e+00  1.0000673988582480e+00  9.9999984648675677e-01  9.9882268102251992e-01  9.9999016352730996e-01  1.0000382692255783e+00  1.0025005886948957e+00  1.0026234873676225e+00  9.9878447493500533e-01  9.9999701245871675e-01  1.0040330584874342e+00  1.0030629785830534e+00  1.0000647047168048e+00  9.9994496911829789e-01  1.0000969690358281e+00  9.9978469836375072e-01  1.0000405420467116e+00  9.9999666088565875e-01  9.9881894969243190e-01  1.0005650306131189e+00  9.9999976056926776e-01  1.0276347920745514e+00  1.0000038218441945e+00  9.9999992760074430e-01  9.9999973839565703e-01  1.0620912810407426e+00  1.1675106573430736e+00  1.0132315083776031e+00  9.9999976065145346e-01  9.9999980243180053e-01  1.0000000068956465e+00  9.8937804282869402e-01  1.0007618371085589e+00  1.0282439777222383e+00  3.6037441622391904e+00  1.0000004101624980e+00  9.9996390891191367e-01  1.0000054653620105e+00  9.9999981412637007e-01  9.9999877313326835e-01  9.9999932496224297e-01  9.9999962226907424e-01  1.0004028132049128e+00  9.9999955883006297e-01  2.4359816999294988e+00  9.9999873299413600e-01  1.5108796321863509e+00  1.1213937647383789e+00  1.0046340644335050e+00  1.0199291726151967e+00  1.0192119461350955e+00  9.9862852532441693e-01  9.9999999328342226e-01  2.6460136008863051e+00  2.4828126686957450e+00  5.1946821566139420e+01  1.8184215434532756e+01  4.4011875010224273e+01  9.9995591068549039e-01  9.9976350826270610e-01  9.9999979037496234e-01  1.0911816302969062e+00  9.9999986671661778e-01  9.9999635695037681e-01  9.9999979785032433e-01  9.9999973931150499e-01  1.0000011252974266e+00  1.0000067078198909e+00  1.0070246861157170e+00  9.9995686410902873e-01  1.0000041191001945e+00  9.9602651411555221e-01  9.9999228849352506e-01  9.9999952294462480e-01  9.9978729685086110e-01  1.0001645872075986e+00  1.0089346054382109e+00  1.0033754380202808e+00  9.9998771453513213e-01  1.0038685979211970e+00  9.9282118202229241e-01  1.0003104152735256e+00  9.9999543608448616e-01  1.0025118667174673e+00  9.9999999545298268e-01  9.8982657422936671e-01  9.9999265521043013e-01  9.9572363068452019e-01  9.9999629412116620e-01  9.9518732137119659e-01  9.9999887372833540e-01  1.0000214229775350e+00  9.9999855611228128e-01  1.0000000027010525e+00  9.9999998660758671e-01  9.9999053445475372e-01  1.8266590398130049e+01  7.5261295994851267e+01  9.9999971677492439e-01  9.9999512868337326e-01  9.9999813998480314e-01  9.9995367498725751e-01  9.9963585495035934e-01  9.9998493005058242e-01  1.0000026529822346e+00  1.0149300567334569e+00  1.0008403229359417e+00  9.9999999789050642e-01  1.0000375315989021e+00  1.0014665635990829e+00  1.0000485199863762e+00  1.4462234894148114e+00  1.3463565312812631e+00  9.9834458645883939e-01  1.0002311147808711e+00  1.0000022986535537e+00  1.0000007629108703e+00  1.0000070808617767e+00  1.0028637460133702e+00  1.0592176906897273e+00  9.1644237081199287e-01  1.0175244636843535e+00  1.0035020830305048e+00  9.7027182493170172e-01  9.9999927943549993e-01  2.4991683592610237e+00  9.9975822802408987e-01  1.0000024793095281e+00  1.0742616691981568e+00  1.0747106872108891e+00  9.9999974176873985e-01  1.0011708049753769e+00  1.0000001136162779e+00  1.0000080015276973e+00  9.9999036064205149e-01  1.0000151079344521e+00  1.0002085508505132e+00  1.0000041319726964e+00  1.0000041134826194e+00  1.0480736020712356e+00  9.9998181967745392e-01  9.9999435725722441e-01  9.9999524354276392e-01  5.0276701674125512e+01  9.9999190991920817e-01  1.0011145677629705e+00  9.9999809363555925e-01  9.9991032758019582e-01  1.0000117146472913e+00  9.9999985772263278e-01  1.0008822833014908e+00  9.9929514481439607e-01  1.3877175022419266e+00  7.7714554850690043e-01  1.0003681957748238e+00  9.9992927399942677e-01  1.0000000083278968e+00  9.9999998729416573e-01  1.0004214890344862e+00  1.0000001420500793e+00  1.0895330387750406e+00  1.6350112318987977e+00  1.0201007418548984e+00  1.0000005472675542e+00  6.0774345207564631e+00  9.8230401066588757e-01  1.7111880497299468e+00  1.0000002691984398e+00  9.9999905889771912e-01  1.0001400860876763e+00  1.6391415783954388e+00  1.0076975705207680e+00  1.0000533479263720e+00  9.9991217019492140e-01  1.0004394593213131e+00  1.0026131286275306e+00  9.9999976436392990e-01  9.9999975289598730e-01  1.0000699029886750e+00  9.9999788971506254e-01  1.0000015226121437e+00  9.9999999563632924e-01  1.0002946473150682e+00  6.1769084572694555e-01  1.0000002557116270e+00  9.8250503664378697e-01  1.0000021276786371e+00  1.1098646778571626e+00  9.9994418746875113e-01  9.9999912188045736e-01  1.0001391774285697e+00  1.0000072043431560e+00  1.0223593564460340e+00  1.0025229098970563e+00  1.0007460228458218e+00  1.0007399384185549e+00  1.0001403536718261e+00  1.0001120414078748e+00  9.9999981260794557e-01  1.0000132608011094e+00  9.9999980942781530e-01  1.1917752000919408e+00  1.0000089903156753e+00  1.0917642604315616e+00  9.9989825056494397e-01  1.0001656909739944e+00  5.8612876238771845e+00  1.3057954772660173e+01  1.0381045120748844e+00  1.0440589530825548e+00  2.2821697859954093e+00  1.0002662057418834e+00  9.9999976698829629e-01  9.9999987137101687e-01  1.0042984890351128e+00  1.0000005774566760e+00  9.9997320955205649e-01  1.0000031385023789e+00  9.9999975046622636e-01  1.0001806515553233e+00  9.9999988098895520e-01  9.9999974304670247e-01  1.0066447358942976e+00  9.9982869921526096e-01  1.0002758890873671e+00  1.0022096895580732e+00  9.9826182241293648e-01  2.0059212780020390e+00  1.5921221617670009e+00  1.0001478584168908e+00  9.9897062083833532e-01  9.9901762079454948e-01  9.9918920874669015e-01  1.0000869251118232e+00  9.9994615701650269e-01  1.0000287598259148e+00  1.4774232387944897e+00  1.0262544564190774e+00  9.9683328196163856e-01  9.9583206230922883e-01  1.0000211026956507e+00  7.2904848631154606e-01  9.9999162150593568e-01  1.0021073385261390e+00  1.0006772927812855e+00  1.0012882627217372e+00  5.4111366292492434e+01  9.9999976106506705e-01  9.8756455317976466e-01  1.0002327784601870e+00  1.0369761713126320e+00  9.4655561717984749e-01  9.9999971316296032e-01  1.0083426747129600e+00  1.0000100477898226e+00  1.0030991810459906e+00  1.1582306216884808e+00  1.0207334712934439e+00  1.0012588808151044e+00  9.9999982869515125e-01  9.9998891914114740e-01  9.9981309350405401e-01  1.0000002242771875e+00  9.9854810699645735e-01  9.9999899893379862e-01  9.9999528346890953e-01  9.9481759577204631e-01  9.7145807706513576e-01  1.0000014438053131e+00  9.9999971988904413e-01  2.8561711166391857e+00  1.0015316539210903e+00  1.0006864912089031e+00  1.0076062268413959e+00  9.8562547887196839e-01  4.5569720456051357e+00  5.4839111924541193e+00  8.5874138743424167e-01  9.6267585860877354e+00  9.9999798643656124e-01  1.0000001337200419e+00  9.9999949742732930e-01  1.0000093917802013e+00  1.0058605635042579e+00  9.9989003994201187e-01  9.9983230700802028e-01  9.9999858002576258e-01  1.0000052568691118e+00  1.0000121659549430e+00  9.9999961486706113e-01  9.9965068169023485e-01  9.9999999890183155e-01  1.0000000004563232e+00  9.5090428527938975e-01  9.9999985832630678e-01  9.9999992064600773e-01  1.0044814047390560e+00  9.9876620023855389e-01  9.9999972872729570e-01  1.0000005194462360e+00  1.1348331102219558e+00  1.0527383480249262e+00  9.9999934265534640e-01  9.9977854171908509e-01  1.0013267802735286e+00  1.0000011122405408e+00  9.9985120317541365e-01  9.9986500603692585e-01  1.0000006471965581e+00  1.0018287023287384e+00  1.0000003788096030e+00  9.9999978423999492e-01  1.0021957927397767e+00  1.0050164891769946e+00  1.0000232368128070e+00  9.9996911927395049e-01  1.0013524125148121e+00  1.0001350954742894e+00  1.0000744662690482e+00  1.0000903037548723e+00  9.9999529618316363e-01  9.9999989562232239e-01  9.9999967947642510e-01  9.9999982952486599e-01  9.9999988372380189e-01  2.0694338904773097e+00  6.6268580006791267e-01  1.0000018918325786e+00  1.0000052000783841e+00  1.0000181203111447e+00  9.9999973981796841e-01  9.9999996841252459e-01  9.9999981748802302e-01  9.7066849740444781e+01  4.5662745737647519e+01  6.7398420909142178e+00  1.0005429405720720e+00  9.9999904595063027e-01  1.0021659889097079e+00  1.0000013682629134e+00  1.0126453839633913e+00  1.0000055471511413e+00  1.0213207431113165e+00  1.0025300946438733e+00  9.9963745964638895e-01  9.9999988806639173e-01  9.9960038987721933e-01  9.9931539612728026e-01  9.4792441079491396e-01  8.8558987952425683e-01  9.9999983131409265e-01  9.9999973402903464e-01  9.9999995961622057e-01  1.0477627405477041e+00  9.8833228150070318e-01  9.9999949587218107e-01  9.9999382507592316e-01  9.9935151032125424e-01  9.9963299826936902e-01  9.9999353687051618e-01  9.9972330179723023e-01  1.0000132795187326e+00  9.9999977633847448e-01  1.0000000248586736e+00  9.9999983221153410e-01  9.9999747522258386e-01  9.9937095395145736e-01  9.9999854990969006e-01  1.0000000061312246e+00  9.9999996412221548e-01  9.9440737283624980e-01  9.9981162298204895e-01  3.6849344374511110e+00  9.9905154028409882e-01  9.9999027278611230e-01  1.0000415483102927e+00  1.0000878317019863e+00  9.9953863699910495e-01  9.9999977798153972e-01  1.0058287766701979e+00  1.0246936671101030e+00  1.0841865916514983e+00  2.6333073689933684e+01  1.4290436056652087e+00  6.2656651112991568e+00  9.9999999075069301e-01  1.0000006620207202e+00  9.9999976676323676e-01  1.0000107806035867e+00  1.0000105677146660e+00  1.0000081313676925e+00  1.0813445662234429e+00  9.9999787103032489e-01  1.0072270026551529e+00  9.9999973379076579e-01  9.8632898495338572e-01  1.0000422469128825e+00  1.0085051451159881e+00  1.0177035945505428e+00  1.0000602447111917e+00  2.2743944558736064e+00  9.9999982099728535e-01  2.9023622644755239e+01  1.1777483491949481e+00  9.9999357945964140e-01  1.0000040243584398e+00  1.0019181931971095e+00  1.0000071523509351e+00  1.0118027073692284e+00  9.9999586920197803e-01  1.2188080096183327e+00  1.0016206164826829e+00  9.9999591975038704e-01  9.9999994280821325e-01  1.0000000459127825e+00  9.9999982820558719e-01  6.9791861594522089e+01  4.1835200306437059e+01  1.5576496297804667e+01  9.8673265446394298e-01  9.9999998531173850e-01  1.0000006683460980e+00  9.9999999874015832e-01  2.2873766181719746e+00  1.0000000080535461e+00  2.9670367275677911e+00  9.9999980800416377e-01  9.9999974584506357e-01  9.9999975371094041e-01  1.0