<?xml version="1.0"?>
<VTKFile type="UnstructuredGrid"  version="0.1"  >
<UnstructuredGrid>
<Piece  NumberOfPoints="2907" NumberOfCells="5077">
<Points>
<DataArray  type="Float64"  NumberOfComponents="3"  format="ascii">-20 2.5 0  -20 0 0  -1 0 0  -0.9996988186962042 0.02454122852291233 0  -0.9987954562051724 0.04906767432741797 0  -0.9972904566786902 0.07356456359966773 0  -0.9951847266721968 0.09801714032956083 0  -0.99247953459871 0.1224106751992163 0  -0.989176509964781 0.1467304744553618 0  -0.9852776423889412 0.1709618887603012 0  -0.9807852804032304 0.1950903220161286 0  -0.9757021300385285 0.21910124015687 0  -0.970031253194544 0.2429801799032641 0  -0.9637760657954398 0.2667127574748985 0  -0.9569403357322088 0.2902846772544624 0  -0.9495281805930367 0.3136817403988914 0  -0.9415440651830207 0.3368898533922203 0  -0.9329927988347388 0.3598950365349883 0  -0.9238795325112867 0.3826834323650899 0  -0.9142097557035307 0.4052413140049899 0  -0.9039892931234433 0.427555093430282 0  -0.8932243011955152 0.4496113296546069 0  -0.8819212643483549 0.4713967368259979 0  -0.8700869911087113 0.4928981922297841 0  -0.857728610000272 0.5141027441932218 0  -0.8448535652497071 0.5349976198870972 0  -0.8314696123025453 0.5555702330196022 0  -0.8175848131515836 0.5758081914178454 0  -0.8032075314806448 0.5956993044924335 0  -0.7883464276266062 0.6152315905806269 0  -0.773010453362737 0.6343932841636455 0  -0.7572088465064846 0.6531728429537766 0  -0.7409511253549589 0.6715589548470186 0  -0.7242470829514668 0.6895405447370671 0  -0.7071067811865475 0.7071067811865476 0  -0.6895405447370669 0.7242470829514669 0  -0.6715589548470184 0.740951125354959 0  -0.6531728429537765 0.7572088465064847 0  -0.6343932841636454 0.7730104533627371 0  -0.6152315905806267 0.7883464276266063 0  -0.5956993044924334 0.8032075314806449 0  -0.5758081914178453 0.8175848131515837 0  -0.555570233019602 0.8314696123025455 0  -0.534997619887097 0.8448535652497072 0  -0.5141027441932217 0.8577286100002721 0  -0.492898192229784 0.8700869911087115 0  -0.4713967368259977 0.881921264348355 0  -0.4496113296546067 0.8932243011955152 0  -0.4275550934302819 0.9039892931234434 0  -0.4052413140049897 0.9142097557035307 0  -0.3826834323650897 0.9238795325112867 0  -0.3598950365349882 0.9329927988347388 0  -0.3368898533922199 0.9415440651830208 0  -0.3136817403988914 0.9495281805930367 0  -0.2902846772544622 0.9569403357322089 0  -0.2667127574748983 0.9637760657954398 0  -0.2429801799032639 0.970031253194544 0  -0.2191012401568697 0.9757021300385286 0  -0.1950903220161282 0.9807852804032304 0  -0.1709618887603012 0.9852776423889412 0  -0.1467304744553616 0.989176509964781 0  -0.1224106751992162 0.99247953459871 0  -0.09801714032956065 0.9951847266721969 0  -0.07356456359966733 0.9972904566786902 0  -0.04906767432741801 0.9987954562051724 0  -0.02454122852291214 0.9996988186962042 0  6.123233995736766e-17 1 0  0.02454122852291226 0.9996988186962042 0  0.04906767432741813 0.9987954562051724 0  0.07356456359966745 0.9972904566786902 0  0.09801714032956077 0.9951847266721968 0  0.1224106751992163 0.99247953459871 0  0.1467304744553617 0.989176509964781 0  0.1709618887603014 0.9852776423889412 0  0.1950903220161283 0.9807852804032304 0  0.2191012401568698 0.9757021300385286 0  0.242980179903264 0.970031253194544 0  0.2667127574748984 0.9637760657954398 0  0.2902846772544623 0.9569403357322089 0  0.3136817403988916 0.9495281805930367 0  0.3368898533922201 0.9415440651830208 0  0.3598950365349883 0.9329927988347388 0  0.3826834323650898 0.9238795325112867 0  0.4052413140049899 0.9142097557035307 0  0.4275550934302822 0.9039892931234433 0  0.4496113296546066 0.8932243011955153 0  0.4713967368259978 0.8819212643483549 0  0.4928981922297841 0.8700869911087113 0  0.5141027441932217 0.8577286100002721 0  0.5349976198870973 0.844853565249707 0  0.5555702330196023 0.8314696123025452 0  0.5758081914178453 0.8175848131515837 0  0.5956993044924335 0.8032075314806448 0  0.6152315905806268 0.7883464276266062 0  0.6343932841636455 0.773010453362737 0  0.6531728429537768 0.7572088465064845 0  0.6715589548470183 0.7409511253549591 0  0.6895405447370669 0.7242470829514669 0  0.7071067811865476 0.7071067811865475 0  0.724247082951467 0.6895405447370668 0  0.7409511253549591 0.6715589548470183 0  0.7572088465064846 0.6531728429537768 0  0.773010453362737 0.6343932841636455 0  0.7883464276266063 0.6152315905806268 0  0.8032075314806449 0.5956993044924334 0  0.8175848131515837 0.5758081914178453 0  0.8314696123025452 0.5555702330196022 0  0.8448535652497071 0.5349976198870972 0  0.8577286100002721 0.5141027441932217 0  0.8700869911087115 0.492898192229784 0  0.881921264348355 0.4713967368259976 0  0.8932243011955153 0.4496113296546065 0  0.9039892931234433 0.4275550934302821 0  0.9142097557035307 0.4052413140049899 0  0.9238795325112867 0.3826834323650898 0  0.932992798834739 0.3598950365349881 0  0.9415440651830208 0.3368898533922201 0  0.9495281805930367 0.3136817403988915 0  0.9569403357322088 0.2902846772544623 0  0.9637760657954398 0.2667127574748984 0  0.970031253194544 0.2429801799032639 0  0.9757021300385286 0.2191012401568698 0  0.9807852804032304 0.1950903220161282 0  0.9852776423889412 0.1709618887603012 0  0.989176509964781 0.1467304744553617 0  0.99247953459871 0.1224106751992162 0  0.9951847266721969 0.0980171403295606 0  0.9972904566786902 0.07356456359966743 0  0.9987954562051724 0.04906767432741801 0  0.9996988186962042 0.02454122852291229 0  1 0 0  20 0 0  20 2.5 0  0 2.5 0  -10 2.5 0  10 2.5 0  -10.5 0 0  -5 2.5 0  10.5 0 0  5 2.5 0  -5.75 0 0  5.75 0 0  -15.25 0 0  -15 2.5 0  15.25 0 0  15 2.5 0  -17.625 0 0  -17.5 2.5 0  17.5 2.5 0  17.625 0 0  12.5 2.5 0  12.875 0 0  -12.5 2.5 0  -12.875 0 0  -2.5 2.5 0  2.5 2.5 0  -8.125 0 0  -7.5 2.5 0  8.125 0 0  7.5 2.5 0  -3.375 0 0  3.375 0 0  -18.75 2.5 0  20 1.25 0  16.4375 1.19375 0  -16.25 2.5 0  13.75 2.5 0  -14.0625 0 0  -11.6875 0 0  11.6875 0 0  8.75 2.5 0  -8.75 2.5 0  6.9375 0 0  6.25 2.5 0  -6.25 2.5 0  -9.3125 0 0  -6.9375 0 0  9.3125 0 0  11.25 2.5 0  -11.25 2.5 0  3.75 2.5 0  4.5625 0 0  -4.5625 0 0  -3.75 2.5 0  -13.75 2.5 0  14.0625 0 0  -16.4375 0 0  -20 1.25 0  -18.8125 0 0  18.75 2.5 0  -18.21875 1.2359375 0  18.125 1.278125 0  -15.84375 1.2125 0  -14.375 1.30859375 0  14.65625 1.203125 0  2.1875 0 0  -2.1875 0 0  13.125 1.315625 0  3.125 1.315625 0  -3.125 1.315625 0  -12.28125 1.1890625 0  -5.15625 1.184375 0  11.09375 1.184375 0  5.625 1.325 0  -10.97262068800044 1.220713793599868 0  9.375 1.32734375 0  -6.875 1.32734375 0  -9.67626828410207 1.24449497187193 0  8.061334925608099 1.312208731402025 0  -8.188665074391901 1.312208731402025 0  -1.25 2.5 0  1.25 2.5 0  4.37465139623265 1.41327350462657 0  16.25 2.5 0  6.84375467392576 1.430449641528851 0  -1.846573640185365 1.334702047669377 0  1.846573640185365 1.334702047669377 0  -17.02955351149946 1.396129584721571 0  16.4375 0 0  18.8125 0 0  -13.31314667860176 1.511193493282891 0  -4.122005747945582 0.961844908681634 0  12.12799425205442 0.961844908681634 0  15.54930641305724 1.660405980876393 0  19.0578783583929 0.9559530595267438 0  8.71875 0.6864560603786576 0  -7.53125 0.6864560603786576 0  -0.6257799091428727 1.819008129832856 0  0.6257799091428734 1.819008129832855 0  6.291331569065717 0.7194652423646902 0  -19.11204717950418 0.9044926794710327 0  -4.488713231834613 1.772186102355655 0  11.76128676816539 1.772186102355655 0  -19.28185607205105 1.781856072051052 0  19.30868080343342 1.808680803433421 0  9.90625 0.6371857066656857 0  -6.34375 0.6371857066656857 0  3.796921710049233 0.7617406159238448 0  7.392020585015773 0.7480839107774819 0  -8.910372062800235 0.7929553447587234 0  10.2506781820361 1.451853913138859 0  -5.999321817963904 1.451853913138859 0  4.957643119381741 0.7716423099297361 0  17.29984375 0.8640625 0  15.41193625859067 0.8279888354083842 0  -13.72251704931534 0.7728002662082776 0  16.875 2.5 0  17.12178336313261 1.690954734835967 0  -11.64001625260176 1.74572103154608 0  2.477726735235857 0.7850262278604345 0  13.46875 0 0  13.765625 0.7802887470308788 0  -2.78125 0 0  -2.477726735235857 0.7850262278604346 0  -10.33383379274331 1.744431431923121 0  13.91957519050334 1.653419259628842 0  -15.08147780274903 0.8341506893754731 0  -15.14066649024666 1.671962869821843 0  -8.950686484882164 1.678622661163363 0  -17.55392917606836 0.794731598412167 0  -16.80247533599675 0.6688259240674158 0  -12.94289066923278 0.7766744225472476 0  -9.90625 0 0  -10.31601468672093 0.7730817089126454 0  -18.21875 0 0  -12.28125 0 0  -17.68515668569534 1.768907656575843 0  18.21875 0 0  10.85059123027421 1.880344717307101 0  -5.399408769725794 1.880344717307101 0  -3.738137326223278 1.749164834446819 0  -3.125 2.5 0  12.46235897590077 1.601301060091387 0  -11.09375 0 0  -11.61661448001209 0.7781698802173554 0  -15.625 2.5 0  -1.764022608759088 0.6027229563180789 0  1.59375 0 0  -8.125 2.5 0  8.125 2.5 0  8.713468311289519 1.727645658498745 0  9.375 2.5 0  -7.536531688710481 1.727645658498745 0  -6.875 2.5 0  14.375 2.5 0  17.78381794101733 1.874391370085592 0  18.59891476281433 1.80649740393129 0  -18.58835555265984 1.824268641341969 0  1.806126122135773 0.6510673837470153 0  -16.875 2.5 0  -16.36681393636619 1.755298393865037 0  -16.13072438662071 0.6014017614895231 0  -13.92460230791385 1.83195710210235 0  -14.40198779087891 0.6105385965811564 0  20 0.625 0  19.40625 0 0  14.6875 1.888836596385542 0  14.65625 0 0  12.78248197181444 0.6991460920542635 0  -3.467518028185561 0.6991460920542635 0  13.125 2.5 0  2.491957142932539 1.738660596534321 0  3.125 2.5 0  1.875 2.5 0  3.718973573227002 1.75927763286174 0  -2.491957142932539 1.738660596534321 0  -1.875 2.5 0  -9.375 2.5 0  6.2001972846108 1.772767401802766 0  5.625 2.5 0  5.027483518098582 1.760895488350309 0  5.625981449127788 0.6566963631252629 0  -12.30101114679273 1.859484693920165 0  9.742489932362783 1.884363450023167 0  -6.507510067637216 1.884363450023166 0  1.13492303295015 1.283502262067074
[...]
<PointData  Scalars="f_16229570"> 
<DataArray  type="Float64"  Name="f_16229570"  format="ascii">1.0472745071089047e+00  9.9995419168499200e-01  9.6450888706703564e-01  9.8528316954913231e-01  9.8964398257179642e-01  9.8502386070019832e-01  9.8997280160358481e-01  9.8904978963291079e-01  9.8470577527146985e-01  9.7409208959861893e-01  9.9685089666982596e-01  9.9424023899516101e-01  9.8579656022883189e-01  9.8919014192920685e-01  9.8308473205921110e-01  9.8431848313383619e-01  9.7372002628216980e-01  9.7210220317593710e-01  9.5043808574545474e-01  9.4831210373005226e-01  9.3776188946519312e-01  9.1027535542638638e-01  8.8735514546937400e-01  8.8313995318941529e-01  8.3902631726493637e-01  8.1235589615393244e-01  7.7404302754321841e-01  7.3887375835683622e-01  6.8931389277695865e-01  6.3971440011364622e-01  6.0865323930095194e-01  5.5235060284463233e-01  4.9586409574337015e-01  4.6333950684927577e-01  4.2718473254513806e-01  3.8297213836939287e-01  3.3661189675159209e-01  3.5415359992782880e-01  3.5876173156849661e-01  3.6681017883858280e-01  4.2233687917553231e-01  5.8324591513338875e-01  7.5165134251547550e-01  8.9798428742902292e-01  1.1263688211310834e+00  1.5201609901015585e+00  1.9268887012552234e+00  2.4410834208692536e+00  3.3394042145367049e+00  4.4133570533133639e+00  5.3198977050231697e+00  6.5214076163914516e+00  8.5598503793575045e+00  1.0833996014181565e+01  1.2644361130767379e+01  1.4813069632662534e+01  1.6790252760169597e+01  2.0081257144716059e+01  2.4105628706618099e+01  2.6863460005187637e+01  3.2108231619266355e+01  3.7449270650445818e+01  4.2395578182986483e+01  4.7454709191074180e+01  5.6131218718808221e+01  6.4518581625516589e+01  7.2296199163948344e+01  7.9106908846286743e+01  7.9276857587481231e+01  8.5935192995630629e+01  9.1228277886317727e+01  1.0146474745801117e+02  1.0869918063691331e+02  1.1675357592573252e+02  1.2096291891393143e+02  1.2149726171005683e+02  1.2320827541610312e+02  1.2515104106743783e+02  1.2371830847313291e+02  1.2135688376151482e+02  1.1827583205432872e+02  1.1926431053920855e+02  1.1617020882581386e+02  1.0864568067420724e+02  1.0106026617100186e+02  9.3536357774724934e+01  8.7981492538539314e+01  8.5906183729048649e+01  8.1280953518527213e+01  7.2196088274434359e+01  6.5948718043922611e+01  6.1256930973901611e+01  5.7331233548946628e+01  5.1206872155145469e+01  4.6967881951652885e+01  4.2509093707806620e+01  3.7120996054299759e+01  3.2454932009078533e+01  2.9375643457123331e+01  2.6472112178350521e+01  2.3601872637222563e+01  2.1271429589414851e+01  1.9388578066085373e+01  1.7297735270255906e+01  1.5944971660009543e+01  1.4361550000720285e+01  1.2733513543661147e+01  1.1456541411424437e+01  1.0289953162700817e+01  9.2985363884132664e+00  8.1042860869667948e+00  7.1404505971231931e+00  6.1904252662617747e+00  5.6488168323975945e+00  5.0546363875838001e+00  4.5507529458351232e+00  3.8291047946618453e+00  3.3506307935811672e+00  2.9800223283502629e+00  2.5663094050521842e+00  2.2329228834594330e+00  1.9736812561952231e+00  1.7587656899879314e+00  1.5699863588442662e+00  1.4196037448264085e+00  1.2850153019804074e+00  1.2007031752516917e+00  1.1294526592028169e+00  1.0626068491954928e+00  1.0235708986712491e+00  1.0294797219964944e+00  1.0000000033019163e+00  1.0000000063220251e+00  1.2718715886074961e+01  1.0000010727719846e+00  1.0001679076174159e+00  1.0000018274007090e+00  1.0059659591944738e+00  1.0001169982352265e+00  1.0558655328743476e+00  9.9727469919111089e-01  1.0380227652138267e+00  1.0003564713218658e+00  9.9996077962705432e-01  1.0000001526163134e+00  1.0000004718270947e+00  1.0013575002140962e+00  1.0012711735762927e+00  1.0000000147028081e+00  1.0000000051876252e+00  1.0000105243303135e+00  1.0000044696810051e+00  9.9999238135997470e-01  1.0000404890320684e+00  1.1765881290733349e+00  2.4279644598913062e+00  9.9992098044571298e-01  1.0001215482170143e+00  1.0023433651392688e+00  1.0027188844864467e+00  9.5403030141430234e-01  1.4003705624727905e+00  1.0083469964908596e+00  9.9999999764529668e-01  1.0000000552184474e+00  1.0000917011664812e+00  1.0000023634909971e+00  1.0001254948083904e+00  1.0000115436656440e+00  1.0000240369266749e+00  1.0006298517384817e+00  1.0000135190696118e+00  1.0094978357091631e+00  1.0114457653312847e+00  1.0007422123379488e+00  9.9998908567601297e-01  9.9950948969051179e-01  1.0005552244723368e+00  1.0000404297490229e+00  9.9999819463322326e-01  1.2801054097644062e+00  1.1289790181016428e+00  9.8769232668901830e-01  1.0300860098642493e+00  9.9997798688359152e-01  1.0000008564390621e+00  1.0008428987933451e+00  1.0121124648239945e+00  1.0009322291747842e+00  1.0000000053942604e+00  1.0026100872131849e+00  1.0000000038894195e+00  1.0001990567817409e+00  1.0000304096247783e+00  1.0000006169383313e+00  2.1533176805509160e+00  8.6949323851432148e-01  1.0000045013739798e+00  1.5663010189410533e+00  1.0392100720777950e+00  1.0000048563148214e+00  1.0014095804259580e+00  1.0000530894451825e+00  1.0322441412371277e+00  1.0000011350006879e+00  1.0004026746916064e+00  1.0001780608969877e+00  1.0000017561298711e+00  1.0018281160839115e+00  1.0000225700699985e+00  2.3018096534930872e+00  1.0399304265070374e+01  1.1382832187172118e+00  1.0000000899343970e+00  1.0071260154151820e+00  1.2006938848566411e+00  3.4629082457332321e+00  1.0006354301630853e+00  1.0000000269330087e+00  1.0000000014643529e+00  9.9999998618760744e-01  9.9990902259404935e-01  1.0000149348814731e+00  1.0000002216703672e+00  9.9999999743743051e-01  1.0010686804091533e+00  9.9991561483834590e-01  3.6607742984503098e+00  9.7528400707420566e+00  1.0183122572163488e+00  1.0034637281075431e+00  1.0109944293417463e+00  1.0000237669211502e+00  1.0125814950762724e+00  1.0000000045440207e+00  1.0002474384640661e+00  9.9936695312118051e-01  1.2671937553298418e+00  1.0049320368284242e+00  9.9999292016221475e-01  1.0001400610958133e+00  1.0007778934787721e+00  1.0780241607940684e+00  1.0000000118827563e+00  1.0000001757423587e+00  1.0000547652477643e+00  1.0000000359223034e+00  1.0000000247157150e+00  9.9999854105153008e-01  2.0155601440267876e+00  1.0000019644995974e+00  1.0000016330231252e+00  9.2105515256656034e-01  9.9028531368108097e-01  1.0000006123970764e+00  1.0000017968926822e+00  1.0001871691163688e+00  9.9999392114742558e-01  1.0000105488354569e+00  1.0013571540982789e+00  1.0008698826630307e+00  1.0000251800109834e+00  9.9999774405004482e-01  1.0000009786628132e+00  1.0013383228606303e+00  1.0000209875738573e+00  1.0015279025774593e+00  1.0000000028926646e+00  1.0000669203297776e+00  1.0031279094538958e+00  1.0301234215113397e+00  1.0760947014363713e+00  1.0000107372199349e+00  1.0000057009425565e+00  1.0000060799305313e+00  9.9998069256385336e-01  9.1934031205653044e-01  2.8588428383738673e+00  1.0000455448649619e+00  1.0013043243014712e+00  1.0007414476837271e+00  1.0003368858483368e+00  1.0001101724947783e+00  1.0002809510334301e+00  1.0000011019234303e+00  1.0000000091390948e+00  1.0000000031542577e+00  1.0056713605584033e+00  3.2029619338589685e+00  1.0003849300655474e+00  1.0001563454310298e+00  1.0005521511625368e+00  9.9998142076906305e-01  1.0001278414696364e+00  9.9999999708821241e-01  1.0000000022733502e+00  1.0000007215896711e+00  1.0000003532458621e+00  1.0000057341304738e+00  9.8636710508349246e-01  1.0000048996608928e+00  2.2070882902664573e+00  1.5897768504167256e+00  4.8822908720991025e+00  1.2786900191305475e+00  1.1605514164957955e+00  1.3880540622751838e+00  1.0000052976882048e+00  1.0131190202664289e+00  1.0267686484921945e+00  1.0576021142595515e+00  1.0392847717774225e+00  9.9999591875990967e-01  1.0002364696242261e+00  1.0005287400056988e+00  1.1875724140345261e+01  1.5445015756454092e+00  1.0000298058278014e+00  9.9534575867696728e-01  1.0001005128811404e+00  9.9863483399971065e-01  1.0000000896312446e+00  1.5231358605633460e+00  1.0000000673404232e+00  1.0000000544393159e+00  9.9996535902909300e-01  1.0023181886934154e+00  1.0031466461769238e+00  1.5707415349295253e+00  5.1103100209875221e+00  9.9999929534345033e-01  1.0000106917268650e+00  9.7523338080132660e-01  1.0000029975405149e+00  9.9999689653833290e-01  1.0000000040468580e+00  1.0030885701244014e+00  9.9998673737132748e-01  1.0019136595643190e+00  1.0004359114432768e+00  1.0030329708022683e+00  9.9996738803577667e-01  1.0056780114628976e+00  1.1329361965037628e+00  7.1586996673366778e+00  9.9999958020050617e-01  1.0000000062480348e+00  9.9999635225136030e-01  1.0184097547752331e+00  1.0000201365210704e+00  1.0133706423547135e+00  1.5595053265896388e+01  5.3702772709318838e+00  1.0000002167626829e+00  1.0271222498021766e+00  1.0000000038191830e+00  1.0000000060951912e+00  1.0000836645613920e+00  1.0020982510754661e+00  1.0000008742155033e+00  1.0000038167547909e+00  1.0000000208504096e+00  9.9404514041358427e-01  1.0000539349200142e+00  1.0000003271168709e+00  9.9997183426199121e-01  1.0000317808646628e+00  1.0012825565353352e+00  1.0000176042759368e+00  9.9971215806050273e-01  1.0005252600225918e+00  7.7193946214199094e-01  1.0002234941529131e+00  1.0000710885882746e+00  1.0706968361475875e+00  9.9997031596369512e-01  1.0048402562345196e+00  1.2276238379874767e+00  9.9885203291124958e-01  1.0002589143621710e+00  1.0199475706236538e+00  9.9981256415540409e-01  1.0011453115721278e+00  1.0011377316089032e+00  1.0005500615570551e+00  1.7135279958285359e+00  1.0000000107359364e+00  1.5791654520204295e+00  1.0000057765316945e+00  1.0755965139441437e+00  1.0292904216083016e+00  1.0004426650034930e+00  1.0000000006212699e+00  1.1532151713878760e+00  1.0003877912461445e+00  1.0003760415024090e+00  1.0099721088749249e+00  1.0000001081142140e+00  1.1084315460586898e+00  1.0000000103091864e+00  1.0000059849278589e+00  1.0000145009966750e+00  1.0000008222237236e+00  1.0015013470481779e+00  1.0001241756032704e+00  9.9999073551602968e-01  1.0051213126255880e+00  1.0045824294417793e+00  1.0030375483618033e+00  1.0000273950501395e+00  1.0131381824582240e+00  1.0140075276619496e+00  9.9998329452082024e-01  1.0000357518475613e+00  1.0010276870247983e+00  1.0002401599075834e+00  1.0004099151402626e+00  1.0000144992851183e+00  1.0014969791857897e+00  1.0034594916739039e+00  9.9999999716071653e-01  9.8658977859520036e-01  1.0000155539602418e+00  1.0000003152960979e+00  1.0000003160827082e+00  1.2352258469892448e+00  9.5937949187082017e-01  1.0569168795210173e+00  1.0000000003353366e+00  9.9999999781476845e-01  1.0000031835371104e+00  1.0205546071115945e+00  1.0015571921339259e+00  1.2646135154835314e+00  3.1910939504566653e+00  1.0000009377060717e+00  1.0000673128095254e+00  1.0000022679527689e+00  1.0000000005969061e+00  1.0000032441518476e+00  1.0000023758258865e+00  1.0000013148984492e+00  9.9996352567736935e-01  1.0000013092235380e+00  6.7719770760199509e+00  1.0000085167431683e+00  1.9305720125847803e+00  1.1078279630727141e+00  1.0015064513824865e+00  1.0051997525103207e+00  1.0015249227258387e+00  1.0012347162858655e+00  1.0000000569023344e+00  9.7463097960829237e-01  2.5546539963479402e+00  8.1904544860688411e+00  4.6073270350657474e+00  1.6032462069403572e+01  1.0000476357945776e+00  1.0002243225688532e+00  1.0000000919068701e+00  1.1873798618971565e+00  1.0000000471825676e+00  1.0000068054594791e+00  1.0000000257473252e+00  1.0000000071902158e+00  1.0000032572771269e+00  1.0000578114645327e+00  9.9612052577928589e-01  1.0000094515114701e+00  1.0006379473987170e+00  1.0065267931105348e+00  1.0000379702104056e+00  1.0000010198070823e+00  1.0015639289357074e+00  9.9989733756026011e-01  1.0077856611053455e+00  1.0079324968000583e+00  1.0000144650224845e+00  1.0030417211517557e+00  1.0264244178880069e+00  1.0248819805337657e+00  1.0000073426636720e+00  1.0117853959066849e+00  1.0000000170569485e+00  1.1196547463395412e+00  1.0000386411262341e+00  1.0051138168989187e+00  1.0000173341012126e+00  1.0100746210589373e+00  9.9999728491656892e-01  9.9998495838036383e-01  9.9999991154993251e-01  1.0000000054853877e+00  1.0000001386250297e+00  1.0000058168871389e+00  6.4567082679330641e+00  1.0861471836929057e+01  9.9999999934120798e-01  1.0000952591996113e+00  1.0001602894976971e+00  9.9990919747611262e-01  1.0002479707538376e+00  1.0004096149531814e+00  1.0002424066487139e+00  1.0374023536096522e+00  1.0285386389423647e+00  1.0000000066621089e+00  9.9997229983457203e-01  1.0177206658137237e+00  1.0018825259941895e+00  1.0369140410643893e+00  1.9603461544620020e+00  1.0066442921177041e+00  1.0072317681544523e+00  9.9999902662542994e-01  1.0003477536795571e+00  1.0001545504849148e+00  9.9836574752688600e-01  1.3682980243938998e+00  1.3047962010208545e+00  1.0148873869609638e+00  1.1193455756943613e+00  1.1012294827020808e+00  1.0000023951749646e+00  7.6143220194875927e-01  1.0018521625755592e+00  1.0000086818313396e+00  9.7036007142593994e-01  1.2532902846727634e+00  9.9999999573864640e-01  1.0001771943219036e+00  1.0000006210157324e+00  1.0008651171858181e+00  1.0002318379637847e+00  1.0000986478592455e+00  1.0000310143765918e+00  9.9999819222131392e-01  9.9999985278453585e-01  1.4270542132548081e+00  1.0000183086840182e+00  1.0000138071883675e+00  1.0000044490231836e+00  2.6769318809941957e+01  1.0003734265926765e+00  9.9933010386386090e-01  1.0000616320111249e+00  1.0000872629959581e+00  1.0000232347714402e+00  1.0000001684776718e+00  1.0000370602745963e+00  1.0038427756789077e+00  9.2748150089699377e-01  1.9457747454890959e+00  9.9976898329527308e-01  1.0008422875425755e+00  1.0000000052494384e+00  1.0000000054931677e+00  1.0000644181144791e+00  1.0000000429042504e+00  1.0075915146506293e+00  2.6353144874668137e+00  1.0413185821679871e+00  1.0000019004447127e+00  2.3238928367446210e+00  1.0417373607948917e+00  2.0876818909419850e+00  1.0000003027492268e+00  1.0000017102558079e+00  9.9988457558765031e-01  9.0507444122892244e-01  1.0208404162811007e+00  1.0005366314618787e+00  1.0001553572978339e+00  1.0007729735486046e+00  1.0009004795345195e+00  1.0000004013900723e+00  1.0000000069900845e+00  1.0006352330261521e+00  1.0000094673735240e+00  1.0000002485923947e+00  1.0000000316144066e+00  9.9995972832695956e-01  3.5509914699048446e+00  1.0000010664749761e+00  1.0622599653559976e+00  1.0000025032415689e+00  1.7118561940005401e+00  1.0000571128416784e+00  1.0000022081918771e+00  9.9996978263351644e-01  1.0000366952010495e+00  9.9125966869787607e-01  1.1842062591949640e+00  1.0053525030191437e+00  1.0023592842257507e+00  1.0021372085454303e+00  1.0010638240424514e+00  1.0000001232745310e+00  9.9999902029339671e-01  1.0000017131746266e+00  1.3744917441445477e+00  9.9999656594028874e-01  1.1707416395718810e+00  1.0030635894275390e+00  1.0008366834064315e+00  6.0654695608183875e+00  5.9044073699607811e+00  9.8814447970407204e-01  1.0752013964526499e+00  2.4521213845563863e+00  1.0447128543575859e+00  1.0000000010971879e+00  1.0000000017674378e+00  1.0080411057164456e+00  1.0000073168302364e+00  1.0000313111323815e+00  1.0000124152068726e+00  1.0000000023980189e+00  1.0001031630369759e+00  1.0000000052935107e+00  1.0000003563912290e+00  1.0137681321586740e+00  1.0001340051246941e+00  1.0011233178305072e+00  1.0024349536577062e+00  1.0022904525865715e+00  1.2112769582409677e+00  1.4950364437362582e+00  1.0116817408098597e+00  1.0009770996108609e+00  1.0008017666165949e+00  1.0010706375349721e+00  1.0006744823516907e+00  1.0014596023811297e+00  9.9997711587091676e-01  1.7651454735793111e+00  1.0879758826007209e+00  1.0144066104377991e+00  1.0161100337234297e+00  1.0000000152551407e+00  2.3296782695308260e+00  1.0000732557045782e+00  1.0008254421014688e+00  1.0002065104709081e+00  1.0003699327364497e+00  1.0692372557119143e+01  1.0000001910957097e+00  1.0345655285932902e+00  1.0037532146796462e+00  1.0704549156276080e+00  1.2142467224323543e+00  1.0000000111799605e+00  9.9598922299836279e-01  1.0000779640560724e+00  1.0017086587575799e+00  1.3844284528706226e+00  1.0402166631018375e+00  1.0028891345587647e+00  1.0000000020360764e+00  1.0001023733606662e+00  1.0034118637691314e+00  1.0000584803271855e+00  1.0018361065406427e+00  1.0000038266215954e+00  1.0000255867550070e+00  1.0105819826058808e+00  1.0998212208724936e+00  9.9999979562273256e-01  1.0000000383913950e+00  2.2427590442770460e+00  1.0045862571779578e+00  1.0025074930978686e+00  1.0190635614974177e+00  1.0180014412834222e+00  1.2248881317915923e+00  3.5516654519540780e+00  1.6759764221399713e+00  1.6893951560750573e+01  1.0000068659953087e+00  1.0000002242091754e+00  9.9999480049914702e-01  1.0000847502531818e+00  9.9692809720915543e-01  1.0004329294621930e+00  1.0003278306597705e+00  1.0002425738269924e+00  1.0003137374656399e+00  9.9999433206071053e-01  1.0000010179544969e+00  1.0003132765051543e+00  1.0000000100830431e+00  1.0000000045286888e+00  1.1772781583516689e+00  9.9999909008626631e-01  1.0000000037739780e+00  1.0075425946358416e+00  1.0010227328472829e+00  1.0000000201672075e+00  1.0000093037391575e+00  9.6062974763832054e-01  1.0064857952712329e+00  1.0000054777229364e+00  1.0003677658781265e+00  1.0034798941197807e+00  1.0000005313289664e+00  1.0001651792158541e+00  1.0001208412732057e+00  1.0000668271068571e+00  9.9891933360291363e-01  1.0000249146834517e+00  1.0000000041113084e+00  1.0040378485400201e+00  1.0063268404907137e+00  9.9996193040877768e-01  1.0000435544725466e+00  1.0013455680514098e+00  9.9999786943171498e-01  9.9997817536482947e-01  9.9998914262823002e-01  1.0000161047084641e+00  1.0000000139353418e+00  1.0000005873865525e+00  1.0000008969147147e+00  1.0000005065450530e+00  8.3141150180149848e-01  2.8830428928642928e+00  1.0000052841461540e+00  9.9998949302747320e-01  9.9999211316920100e-01  1.0000000023932560e+00  1.0000000019958766e+00  1.0000012232296522e+00  1.0395040359863049e+01  1.2759601528647153e+01  4.1251552112631060e+00  9.9997734512137015e-01  1.0000374156896454e+00  9.9995867369264368e-01  1.0000202271637322e+00  9.9538772892753202e-01  1.0000241265726992e+00  9.8946223434943492e-01  1.0025042543910772e+00  1.0014787686395987e+00  1.0000001510814995e+00  1.0006229127219217e+00  1.0006820675366401e+00  1.3695239491704843e+00  1.4817439624743138e+00  1.0000000775377185e+00  1.0000001061696115e+00  1.0000000027482014e+00  1.0958395344932816e+00  1.0387129359019589e+00  1.0000040040735338e+00  1.0001756853596786e+00  1.0005769133321534e+00  1.0003376206781021e+00  1.0002015593327354e+00  1.0005902293176057e+00  1.0003239933787269e+00  1.0000000294924964e+00  1.0000000395958213e+00  1.0000000563659857e+00  1.0000032196849324e+00  1.0005205273174171e+00  1.0000085228805828e+00  1.0000000230727646e+00  1.0000015322689231e+00  1.0270465833587055e+00  1.0001814034412948e+00  3.2280375955650324e+00  1.0028344599517982e+00  1.0000859325196449e+00  1.0003726733979623e+00  9.9993858579276595e-01  1.0023626936293244e+00  1.0000074421206884e+00  1.0085955892293532e+00  1.0093856022660999e+00  1.3753612995059921e+00  7.4434777624005886e+00  1.8795442493789336e+00  4.6815276656810685e+00  1.0000000075969715e+00  9.9999736456234212e-01  1.0000000003540512e+00  9.9999466239196366e-01  9.9999154362248288e-01  9.9999438006334118e-01  1.5202821730217271e+00  1.0000040535786823e+00  1.0010110926685789e+00  1.0000000686160611e+00  1.0530907626994543e+00  9.9999709912957846e-01  1.0003484395616078e+00  1.0007735119333883e+00  9.9998985715887145e-01  2.6782185529324458e+00  1.0000000181349533e+00  6.9270787590842957e+00  1.3589905017146426e+00  9.9999715949117118e-01  1.0002376307470995e+00  9.9889618153982385e-01  1.0000388465839618e+00  9.9320204754924912e-01  1.0000059655029563e+00  9.3695491795231844e-01  1.0005356343390128e+00  1.0000359594807358e+00  1.0000002163951940e+00  1.0000000993190237e+00  1.0000000068838706e+00  9.2920865938072215e+00  9.0875217346613386e+00  5.2172027488098909e+00  1.1740162480388152e+00  1.0000000172083245e+00  1.0000013176959317e+00  1.0000000888886200e+00  8.3477341332185062e-01  1.0000000083364877e+00  2.7327977729795476e+00  1.0000000015621564e+00  9.9999999893487146e-01  1.0000005549826105e+00  1.00000