<?xml version="1.0"?>
<VTKFile type="UnstructuredGrid"  version="0.1"  >
<UnstructuredGrid>
<Piece  NumberOfPoints="2401" NumberOfCells="4608">
<Points>
<DataArray  type="Float64"  NumberOfComponents="3"  format="ascii">0 0 0  0.001070538380698371 0 0  0.004277569313095364 0 0  0.009607359798386061 0 0  0.01703708685546806 0 0  0.02653493525245065 0 0  0.03806023374436157 0 0  0.05156362923366253 0 0  0.06698729810778931 0 0  0.08426519384873815 0 0  0.1033233298543955 0 0  0.1240800962605269 0 0  0.1464466094067445 0 0  0.1703270924499866 0 0  0.1956192854956637 0 0  0.2222148834902257 0 0  0.2500000000000299 0 0  0.2788556548905322 0 0  0.308658283817491 0 0  0.339280267348458 0 0  0.3705904774487813 0 0  0.4024548389919803 0 0  0.4347369038900211 0 0  0.467298435384978 0 0  0.5000000000000517 0 0  0.5327015646151253 0 0  0.5652630961100813 0 0  0.5975451610081212 0 0  0.6294095225513188 0 0  0.6607197326516399 0 0  0.6913417161826045 0 0  0.7211443451095605 0 0  0.7500000000000597 0 0  0.7777851165098603 0 0  0.8043807145044185 0 0  0.829672907550091 0 0  0.8535533905933287 0 0  0.8759199037395413 0 0  0.8966766701456674 0 0  0.9157348061513193 0 0  0.9330127018922625 0 0  0.9484363707663832 0 0  0.961939766255678 0 0  0.9734650647475827 0 0  0.9829629131445586 0 0  0.9903926402016341 0 0  0.9957224306869181 0 0  0.9989294616193084 0 0  1 0 0  0 0.02083333333333333 0  0.001070538380698371 0.02083333333333333 0  0.004277569313095364 0.02083333333333333 0  0.009607359798386061 0.02083333333333333 0  0.01703708685546806 0.02083333333333333 0  0.02653493525245065 0.02083333333333333 0  0.03806023374436157 0.02083333333333333 0  0.05156362923366253 0.02083333333333333 0  0.06698729810778931 0.02083333333333333 0  0.08426519384873815 0.02083333333333333 0  0.1033233298543955 0.02083333333333333 0  0.1240800962605269 0.02083333333333333 0  0.1464466094067445 0.02083333333333333 0  0.1703270924499866 0.02083333333333333 0  0.1956192854956637 0.02083333333333333 0  0.2222148834902257 0.02083333333333333 0  0.2500000000000299 0.02083333333333333 0  0.2788556548905322 0.02083333333333333 0  0.308658283817491 0.02083333333333333 0  0.339280267348458 0.02083333333333333 0  0.3705904774487813 0.02083333333333333 0  0.4024548389919803 0.02083333333333333 0  0.4347369038900211 0.02083333333333333 0  0.467298435384978 0.02083333333333333 0  0.5000000000000517 0.02083333333333333 0  0.5327015646151253 0.02083333333333333 0  0.5652630961100813 0.02083333333333333 0  0.5975451610081212 0.02083333333333333 0  0.6294095225513188 0.02083333333333333 0  0.6607197326516399 0.02083333333333333 0  0.6913417161826045 0.02083333333333333 0  0.7211443451095605 0.02083333333333333 0  0.7500000000000597 0.02083333333333333 0  0.7777851165098603 0.02083333333333333 0  0.8043807145044185 0.02083333333333333 0  0.829672907550091 0.02083333333333333 0  0.8535533905933287 0.02083333333333333 0  0.8759199037395413 0.02083333333333333 0  0.8966766701456674 0.02083333333333333 0  0.9157348061513193 0.02083333333333333 0  0.9330127018922625 0.02083333333333333 0  0.9484363707663832 0.02083333333333333 0  0.961939766255678 0.02083333333333333 0  0.9734650647475827 0.02083333333333333 0  0.9829629131445586 0.02083333333333333 0  0.9903926402016341 0.02083333333333333 0  0.9957224306869181 0.02083333333333333 0  0.9989294616193084 0.02083333333333333 0  1 0.02083333333333333 0  0 0.04166666666666666 0  0.001070538380698371 0.04166666666666666 0  0.004277569313095364 0.04166666666666666 0  0.009607359798386061 0.04166666666666666 0  0.01703708685546806 0.04166666666666666 0  0.02653493525245065 0.04166666666666666 0  0.03806023374436157 0.04166666666666666 0  0.05156362923366253 0.04166666666666666 0  0.06698729810778931 0.04166666666666666 0  0.08426519384873815 0.04166666666666666 0  0.1033233298543955 0.04166666666666666 0  0.1240800962605269 0.04166666666666666 0  0.1464466094067445 0.04166666666666666 0  0.1703270924499866 0.04166666666666666 0  0.1956192854956637 0.04166666666666666 0  0.2222148834902257 0.04166666666666666 0  0.2500000000000299 0.04166666666666666 0  0.2788556548905322 0.04166666666666666 0  0.308658283817491 0.04166666666666666 0  0.339280267348458 0.04166666666666666 0  0.3705904774487813 0.04166666666666666 0  0.4024548389919803 0.04166666666666666 0  0.4347369038900211 0.04166666666666666 0  0.467298435384978 0.04166666666666666 0  0.5000000000000517 0.04166666666666666 0  0.5327015646151253 0.04166666666666666 0  0.5652630961100813 0.04166666666666666 0  0.5975451610081212 0.04166666666666666 0  0.6294095225513188 0.04166666666666666 0  0.6607197326516399 0.04166666666666666 0  0.6913417161826045 0.04166666666666666 0  0.7211443451095605 0.04166666666666666 0  0.7500000000000597 0.04166666666666666 0  0.7777851165098603 0.04166666666666666 0  0.8043807145044185 0.04166666666666666 0  0.829672907550091 0.04166666666666666 0  0.8535533905933287 0.04166666666666666 0  0.8759199037395413 0.04166666666666666 0  0.8966766701456674 0.04166666666666666 0  0.9157348061513193 0.04166666666666666 0  0.9330127018922625 0.04166666666666666 0  0.9484363707663832 0.04166666666666666 0  0.961939766255678 0.04166666666666666 0  0.9734650647475827 0.04166666666666666 0  0.9829629131445586 0.04166666666666666 0  0.9903926402016341 0.04166666666666666 0  0.9957224306869181 0.04166666666666666 0  0.9989294616193084 0.04166666666666666 0  1 0.04166666666666666 0  0 0.0625 0  0.001070538380698371 0.0625 0  0.004277569313095364 0.0625 0  0.009607359798386061 0.0625 0  0.01703708685546806 0.0625 0  0.02653493525245065 0.0625 0  0.03806023374436157 0.0625 0  0.05156362923366253 0.0625 0  0.06698729810778931 0.0625 0  0.08426519384873815 0.0625 0  0.1033233298543955 0.0625 0  0.1240800962605269 0.0625 0  0.1464466094067445 0.0625 0  0.1703270924499866 0.0625 0  0.1956192854956637 0.0625 0  0.2222148834902257 0.0625 0  0.2500000000000299 0.0625 0  0.2788556548905322 0.0625 0  0.308658283817491 0.0625 0  0.339280267348458 0.0625 0  0.3705904774487813 0.0625 0  0.4024548389919803 0.0625 0  0.4347369038900211 0.0625 0  0.467298435384978 0.0625 0  0.5000000000000517 0.0625 0  0.5327015646151253 0.0625 0  0.5652630961100813 0.0625 0  0.5975451610081212 0.0625 0  0.6294095225513188 0.0625 0  0.6607197326516399 0.0625 0  0.6913417161826045 0.0625 0  0.7211443451095605 0.0625 0  0.7500000000000597 0.0625 0  0.7777851165098603 0.0625 0  0.8043807145044185 0.0625 0  0.829672907550091 0.0625 0  0.8535533905933287 0.0625 0  0.8759199037395413 0.0625 0  0.8966766701456674 0.0625 0  0.9157348061513193 0.0625 0  0.9330127018922625 0.0625 0  0.9484363707663832 0.0625 0  0.961939766255678 0.0625 0  0.9734650647475827 0.0625 0  0.9829629131445586 0.0625 0  0.9903926402016341 0.0625 0  0.9957224306869181 0.0625 0  0.9989294616193084 0.0625 0  1 0.0625 0  0 0.08333333333333333 0  0.001070538380698371 0.08333333333333333 0  0.004277569313095364 0.08333333333333333 0  0.009607359798386061 0.08333333333333333 0  0.01703708685546806 0.08333333333333333 0  0.02653493525245065 0.08333333333333333 0  0.03806023374436157 0.08333333333333333 0  0.05156362923366253 0.08333333333333333 0  0.06698729810778931 0.08333333333333333 0  0.08426519384873815 0.08333333333333333 0  0.1033233298543955 0.08333333333333333 0  0.1240800962605269 0.08333333333333333 0  0.1464466094067445 0.08333333333333333 0  0.1703270924499866 0.08333333333333333 0  0.1956192854956637 0.08333333333333333 0  0.2222148834902257 0.08333333333333333 0  0.2500000000000299 0.08333333333333333 0  0.2788556548905322 0.08333333333333333 0  0.308658283817491 0.08333333333333333 0  0.339280267348458 0.08333333333333333 0  0.3705904774487813 0.08333333333333333 0  0.4024548389919803 0.08333333333333333 0  0.4347369038900211 0.08333333333333333 0  0.467298435384978 0.08333333333333333 0  0.5000000000000517 0.08333333333333333 0  0.5327015646151253 0.08333333333333333 0  0.5652630961100813 0.08333333333333333 0  0.5975451610081212 0.08333333333333333 0  0.6294095225513188 0.08333333333333333 0  0.6607197326516399 0.08333333333333333 0  0.6913417161826045 0.08333333333333333 0  0.7211443451095605 0.08333333333333333 0  0.7500000000000597 0.08333333333333333 0  0.7777851165098603 0.08333333333333333 0  0.8043807145044185 0.08333333333333333 0  0.829672907550091 0.08333333333333333 0  0.8535533905933287 0.08333333333333333 0  0.8759199037395413 0.08333333333333333 0  0.8966766701456674 0.08333333333333333 0  0.9157348061513193 0.08333333333333333 0  0.9330127018922625 0.08333333333333333 0  0.9484363707663832 0.08333333333333333 0  0.961939766255678 0.08333333333333333 0  0.9734650647475827 0.08333333333333333 0  0.9829629131445586 0.08333333333333333 0  0.9903926402016341 0.08333333333333333 0  0.9957224306869181 0.08333333333333333 0  0.9989294616193084 0.08333333333333333 0  1 0.08333333333333333 0  0 0.1041666666666667 0  0.001070538380698371 0.1041666666666667 0  0.004277569313095364 0.1041666666666667 0  0.009607359798386061 0.1041666666666667 0  0.01703708685546806 0.1041666666666667 0  0.02653493525245065 0.1041666666666667 0  0.03806023374436157 0.1041666666666667 0  0.05156362923366253 0.1041666666666667 0  0.06698729810778931 0.1041666666666667 0  0.08426519384873815 0.1041666666666667 0  0.1033233298543955 0.1041666666666667 0  0.1240800962605269 0.1041666666666667 0  0.1464466094067445 0.1041666666666667 0  0.1703270924499866 0.1041666666666667 0  0.1956192854956637 0.1041666666666667 0  0.2222148834902257 0.1041666666666667 0  0.2500000000000299 0.1041666666666667 0  0.2788556548905322 0.1041666666666667 0  0.308658283817491 0.1041666666666667 0  0.339280267348458 0.1041666666666667 0  0.3705904774487813 0.1041666666666667 0  0.4024548389919803 0.1041666666666667 0  0.4347369038900211 0.1041666666666667 0  0.467298435384978 0.1041666666666667 0  0.5000000000000517 0.1041666666666667 0  0.5327015646151253 0.1041666666666667 0  0.5652630961100813 0.1041666666666667 0  0.5975451610081212 0.1041666666666667 0  0.62
[...]
<PointData  Scalars="f_831547"> 
<DataArray  type="Float64"  Name="f_831547"  format="ascii">1.0000000000000009e+00  9.9939006341215841e-01  9.9731541462213391e-01  9.9328873694205244e-01  9.8687591879141467e-01  9.7784183940390235e-01  9.6619596376063333e-01  9.5210575359029725e-01  9.3562011354648045e-01  9.1682218223436573e-01  8.9612337574431378e-01  8.7382114611776118e-01  8.5042053784480387e-01  8.2619118086582344e-01  8.0076475193702434e-01  7.7400242802737917e-01  7.4667729519527526e-01  7.1872628506243552e-01  6.9000473238353688e-01  6.6083498884580139e-01  6.3093262323787846e-01  6.0029078915424139e-01  5.6944915458740564e-01  5.3808681734877706e-01  5.0612592173427084e-01  4.7387999473016684e-01  4.4129567120422319e-01  4.0845609679196920e-01  3.7554621001696931e-01  3.4274430173866011e-01  3.1017592917510839e-01  2.7831556177465672e-01  2.4743231408153013e-01  2.1754473646993580e-01  1.8921045576162085e-01  1.6246462861424685e-01  1.3693198804094495e-01  1.1336068628906434e-01  9.1988314974202443e-02  7.2657914018050121e-02  5.5663352330624270e-02  4.1081456258874473e-02  2.8929055318195472e-02  1.9151124510324705e-02  1.1638002182030120e-02  6.2179633319810060e-03  2.6442206630374640e-03  6.4246153377368333e-04  -1.6679443022096229e-15  9.9999999999999933e-01  9.9903750056232432e-01  9.9610449791802624e-01  9.9104856600560909e-01  9.8366261618541240e-01  9.7378443596557729e-01  9.6138534783305551e-01  9.4663344564477736e-01  9.2962685632192732e-01  9.1036109849061042e-01  8.8914063176419578e-01  8.6629362567169843e-01  8.4221543822347245e-01  8.1737245913930212e-01  7.9150963568450994e-01  7.6429589701863176e-01  7.3624336330617968e-01  7.0773702537877192e-01  6.7851928625043312e-01  6.4878065548841746e-01  6.1837194418539720e-01  5.8721279906042934e-01  5.5578531417133825e-01  5.2405609499360528e-01  4.9187448858882116e-01  4.5961275785052585e-01  4.2735735323112001e-01  3.9520363961103627e-01  3.6323709389586611e-01  3.3167513447314606e-01  3.0068132250042801e-01  2.7051632022105276e-01  2.4137603256861923e-01  2.1328539906245600e-01  1.8648768461806858e-01  1.6116774912742957e-01  1.3711967240062981e-01  1.1467390277090515e-01  9.4135205183010162e-02  7.5477045558964687e-02  5.8875781311861802e-02  4.4445904497164915e-02  3.2185613205611703e-02  2.2045147554380931e-02  1.3935147566025215e-02  7.7578010186363684e-03  3.4209397599243270e-03  8.5076647735415044e-04  -1.6373462845692484e-15  1.0000000000000004e+00  9.9885281824409577e-01  9.9539617747900300e-01  9.8957609895028353e-01  9.8130995827769041e-01  9.7053325505853583e-01  9.5725657034340328e-01  9.4164882288489682e-01  9.2397874845540973e-01  9.0417017216540330e-01  8.8243984904363260e-01  8.5910517690746757e-01  8.3444720338336165e-01  8.0884920850365727e-01  7.8251522119249328e-01  7.5490870430611057e-01  7.2617067861272133e-01  6.9682634706090485e-01  6.6704269023572527e-01  6.3682747250081095e-01  6.0595594071377779e-01  5.7438426078500004e-01  5.4241896570014625e-01  5.1041552970182069e-01  4.7821157080106874e-01  4.4600873670004809e-01  4.1410402089046144e-01  3.8261800188246120e-01  3.5161787330824507e-01  3.2120369096228651e-01  2.9156863037579112e-01  2.6282764919578472e-01  2.3512559360163229e-01  2.0846301758979455e-01  1.8297368787709350e-01  1.5883867169877794e-01  1.3589322532667350e-01  1.1437055409113370e-01  9.4557022886538653e-02  7.6416021603332523e-02  6.0106049627248817e-02  4.5781041203343857e-02  3.3455116279489903e-02  2.3114690468861183e-02  1.4726089288914631e-02  8.2512790163873067e-03  3.6560395622090062e-03  9.1213564149889633e-04  -7.2518693108350224e-16  1.0000000000000002e+00  9.9871599752758500e-01  9.9486204033811887e-01  9.8842969625244381e-01  9.7940962134308973e-01  9.6781848183470942e-01  9.5372895941002389e-01  9.3728520163567708e-01  9.1880546110077099e-01  8.9836660154390124e-01  8.7613233872286078e-01  8.5231258875035476e-01  8.2729092841184571e-01  8.0104417637288838e-01  7.7396462237301855e-01  7.4601846550538864e-01  7.1694261381262658e-01  6.8690536614886910e-01  6.5626510433655272e-01  6.2548615620915460e-01  5.9429081181928167e-01  5.6250112671572383e-01  5.3028812967366334e-01  4.9804507447285989e-01  4.6590522314256078e-01  4.3394885982128029e-01  4.0233773345597779e-01  3.7130699144629520e-01  3.4106371271213026e-01  3.1163379958799087e-01  2.8313638459783819e-01  2.5558438565700298e-01  2.2905869741349860e-01  2.0356316104394021e-01  1.7916554314855485e-01  1.5601502335390335e-01  1.3398177359684219e-01  1.1320999291609825e-01  9.4026765647183874e-02  7.6363072430114906e-02  6.0333197876922810e-02  4.6132528078323395e-02  3.3828463424720706e-02  2.3439859986840120e-02  1.4966585973264153e-02  8.3995807364075862e-03  3.7256964547874912e-03  9.3008576310668286e-04  -1.3589877731808562e-15  9.9999999999999978e-01  9.9860375567069459e-01  9.9442157565090006e-01  9.8747796542124777e-01  9.7782266048031974e-01  9.6553253462184530e-01  9.5072716304860638e-01  9.3356696559418195e-01  9.1433285526766395e-01  8.9320781146554251e-01  8.7040372390845733e-01  8.4613470003212965e-01  8.2069406877252482e-01  7.9419275990571103e-01  7.6637681045143891e-01  7.3771548199241399e-01  7.0834364378312042e-01  6.7794173854907147e-01  6.4669722282981701e-01  6.1523158623684326e-01  5.8359019218894470e-01  5.5165695400661119e-01  5.1943034393526022e-01  4.8719338008221835e-01  4.5512595687938640e-01  4.2340304021459435e-01  3.9214620043013237e-01  3.6153696909140148e-01  3.3181748442100978e-01  3.0313681878401616e-01  2.7556111784100451e-01  2.4898945190121588e-01  2.2343377815677912e-01  1.9890380626875645e-01  1.7542275216002251e-01  1.5311275592252727e-01  1.3187348864730372e-01  1.1172486938898668e-01  9.3044403748767296e-02  7.5812731427598257e-02  6.0060565659741265e-02  4.6017262221740532e-02  3.3799713932947735e-02  2.3453523590545259e-02  1.4994463789798060e-02  8.4249098299085841e-03  3.7405404089512844e-03  9.3439448015263820e-04  -9.7795127764703816e-16  1.0000000000000007e+00  9.9848859144511337e-01  9.9398912980859921e-01  9.8658471825980110e-01  9.7638533815778750e-01  9.6352061978318215e-01  9.4815674984409748e-01  9.3048210450969704e-01  9.1067136634248536e-01  8.8897902440027432e-01  8.6560730439427680e-01  8.4082626146228723e-01  8.1488766272048563e-01  7.8806287351933257e-01  7.5997141161797133e-01  7.3054892288007600e-01  7.0046483653154334e-01  6.6980589714708227e-01  6.3820842247645404e-01  6.0614439812977805e-01  5.7393792859533632e-01  5.4176044690167946e-01  5.0962499943536177e-01  4.7754462752276527e-01  4.4568103411210541e-01  4.1419404413080635e-01  3.8327287743842886e-01  3.5310221298170119e-01  3.2390678227882291e-01  2.9583379271703486e-01  2.6898122062746205e-01  2.4321251316160630e-01  2.1846170645584131e-01  1.9472915466650553e-01  1.7199839690816049e-01  1.5037913741401143e-01  1.2978728835249598e-01  1.1014545374465320e-01  9.1821879707516457e-02  7.4910400135874744e-02  5.9403153693417213e-02  4.5513938596195451e-02  3.3414697946993109e-02  2.3168503432226283e-02  1.4797633236762408e-02  8.3056267791320523e-03  3.6843828154549860e-03  9.1996001290991049e-04  -1.4106242459806279e-15  9.9999999999999989e-01  9.9842063314958396e-01  9.9371798999204075e-01  9.8598976514147674e-01  9.7537186240312901e-01  9.6201944754650759e-01  9.4611236624835626e-01  9.2792440060166659e-01  9.0770677173733494e-01  8.8561464120434441e-01  8.6187024995531381e-01  8.3660275297930675e-01  8.1007309801025718e-01  7.8270922639850482e-01  7.5434867239178349e-01  7.2468790462509369e-01  6.9387640611073409e-01  6.6261888785280343e-01  6.3091470606969258e-01  5.9862935043947962e-01  5.6600425367018603e-01  5.3336765884082549e-01  5.0117668691092343e-01  4.6927171449204647e-01  4.3762683545964465e-01  4.0638934577128960e-01  3.7578534454106477e-01  3.4603023213959994e-01  3.1735128009905667e-01  2.8984317784301938e-01  2.6355741281302464e-01  2.3843194666233961e-01  2.1435376565984579e-01  1.9125948910698670e-01  1.6910346540180216e-01  1.4800695374396144e-01  1.2794153899168645e-01  1.0875647822477484e-01  9.0748095598745429e-02  7.4131717006145348e-02  5.8910791127191310e-02  4.5219437714211969e-02  3.3238907700179267e-02  2.3063550117312835e-02  1.4735336978575814e-02  8.2703447376761777e-03  3.6676278866175833e-03  9.1542135638670924e-04  -1.3664147465535653e-15  9.9999999999999989e-01  9.9838577484332203e-01  9.9357000706590459e-01  9.8563645102625419e-01  9.7472389809251403e-01  9.6101054868996150e-01  9.4469783779668504e-01  9.2601902019417903e-01  9.0530172179714385e-01  8.8282035332933162e-01  8.5883721687958092e-01  8.3337097842056651e-01  8.0643439905213743e-01  7.7840649114676730e-01  7.4952189430160698e-01  7.1967865130787589e-01  6.8871009159555141e-01  6.5687162560661261e-01  6.2475514716571023e-01  5.9245151190944934e-01  5.5971263446532871e-01  5.2678343290326290e-01  4.9431414695705556e-01  4.6242216562836952e-01  4.3089361876949961e-01  3.9989850285531503e-01  3.6963240822646898e-01  3.4028624853750106e-01  3.1210930871013653e-01  2.8515263613157871e-01  2.5943270992028189e-01  2.3488191833344799e-01  2.1134312702598462e-01  1.8871045304999751e-01  1.6696777714502323e-01  1.4626063208136589e-01  1.2661260083771161e-01  1.0784177517420734e-01  9.0108108142230803e-02  7.3721298625519835e-02  5.8718368801111247e-02  4.5186610683979847e-02  3.3297924317959075e-02  2.3160557787098041e-02  1.4832261386158681e-02  8.3430509306128588e-03  3.7065357909542430e-03  9.2614681742459826e-04  -1.1288721362721218e-15  1.0000000000000013e+00  9.9833777793244793e-01  9.9338872550354984e-01  9.8525645894023040e-01  9.7409730667580252e-01  9.6010681655207675e-01  9.4350597469287312e-01  9.2453345395481534e-01  9.0345391278865683e-01  8.8057879314351817e-01  8.5628335718258664e-01  8.3069941863639774e-01  8.0367219552438451e-01  7.7542080706807226e-01  7.4597871251506587e-01  7.1568110667686358e-01  6.8453426136694950e-01  6.5263901470481644e-01  6.2010833383005637e-01  5.8757780968416262e-01  5.5485928931403294e-01  5.2189244960629344e-01  4.8921638803490991e-01  4.5713765491400271e-01  4.2557492302275257e-01  3.9471150717651565e-01  3.6476055277122044e-01  3.3587045473408222e-01  3.0817829309119354e-01  2.8170258770474860e-01  2.5652109634881948e-01  2.3252541544687994e-01  2.0943790579040755e-01  1.8715411011622610e-01  1.6573042466690108e-01  1.4529743210373461e-01  1.2590058321539654e-01  1.0737748511239002e-01  8.9807681789706759e-02  7.3505748574871077e-02  5.8557847236612219e-02  4.5069819089317759e-02  3.3218715308011924e-02  2.3115097406997125e-02  1.4812832632960262e-02  8.3390357398782644e-03  3.7079170694029736e-03  9.2711662886724286e-04  -6.4486249389745875e-16  1.0000000000000011e+00  9.9830742248739124e-01  9.9326743780567439e-01  9.8499060047657572e-01  9.7364777310507300e-01  9.5945230107840695e-01  9.4264163155787406e-01  9.2346915507063965e-01  9.0219516262277888e-01  8.7906394963473489e-01  8.5439668176682337e-01  8.2853901471929836e-01  8.0144172872266772e-01  7.7315623525407984e-01  7.4363056835111474e-01  7.1305839476307431e-01  6.8154828901075060e-01  6.4947751537464116e-01  6.1685291124469155e-01  5.8402416095631915e-01  5.5128594134290998e-01  5.1844358023211767e-01  4.8584106355551493e-01  4.5371656942862804e-01  4.2202296647939025e-01  3.9111296804493823e-01  3.6134586157579013e-01  3.3286897191970344e-01  3.0565691809362011e-01  2.7960331427836765e-01  2.5483177933768958e-01  2.3124206791519403e-01  2.0848442635391556e-01  1.8646217360586853e-01  1.6526807153211209e-01  1.4499380214526306e-01  1.2569610464518596e-01  1.0726301946842173e-01  8.9748175068804115e-02  7.3468223029071564e-02  5.8491049406893453e-02  4.4956326243972687e-02  3.3079674323159780e-02  2.2976042604014927e-02  1.4695453419650256e-02  8.2580826118770732e-03  3.6668129362268311e-03  9.1618708555371152e-04  -1.2506692705909369e-15  9.9999999999999989e-01  9.9829347464882867e-01  9.9320887618746412e-01  9.8485363936512249e-01  9.7340559171330721e-01  9.5909122896863830e-01  9.4215881436266569e-01  9.2287093333558523e-01  9.0151763931379081e-01  8.7831046621920317e-01  8.5348945361527473e-01  8.2737437736484509e-01  8.0004235446705463e-01  7.7159295148624873e-01  7.4208369077923630e-01  7.1151121916078330e-01  6.7984031145340662e-01  6.4746529975076472e-01  6.1477971754837057e-01  5.8179180002493680e-01  5.4888889486851189e-01  5.1618684575499119e-01  4.8379337104725961e-01  4.5183181892064328e-01  4.2024629668279084e-01  3.8930044952206000e-01  3.5956330955653132e-01  3.3134727024306132e-01  3.0448471293789064e-01  2.7876782937921812e-01  2.5429622229733184e-01  2.3094540023669741e-01  2.0839265816807381e-01  1.8652197098805343e-01  1.6543108281397714e-01  1.4519937843739320e-01  1.2590548358743134e-01  1.0748156512021602e-01  8.9985395794227471e-02  7.3751950241292566e-02  5.8809382994648517e-02  4.5247270208345458e-02  3.3303496942043827e-02  2.3137121297698373e-02  1.4799118841173462e-02  8.3144164748792555e-03  3.6901759429561025e-03  9.2155624188993009e-04  -5.4656584290770628e-16  9.9999999999999944e-01  9.9826526364717549e-01  9.9311895510104642e-01  9.8470780767519461e-01  9.7322453874623549e-01  9.5888716989763600e-01  9.4193773632931044e-01  9.2264619291745520e-01  9.0130591972476859e-01  8.7819141297832115e-01  8.5346026141449260e-01  8.2734134591257924e-01  7.9994467524963642e-01  7.7134215446085896e-01  7.4162936104002419e-01  7.1102098012598725e-01  6.7943201785846008e-01  6.4691306579133490e-01  6.1406890235127221e-01  5.8108205726038642e-01  5.4803722770573815e-01  5.1528385466075621e-01  4.8307381839682617e-01  4.5129319726868317e-01  4.1989399764657936e-01  3.8910297074765843e-01  3.5944129629498467e-01  3.3135615239319310e-01  3.0468540969934677e-01  2.7917347040331930e-01  2.5484401913604815e-01  2.3156880723917991e-01  2.0910119287176157e-01  1.8727805735536412e-01  1.6618016320924375e-01  1.4589582392016004e-01  1.2652990469814837e-01  1.0804937803778171e-01  9.0498552689735293e-02  7.4247543201415481e-02  5.9346440790764170e-02  4.5742735426798117e-02  3.3725215798005984e-02  2.3469351250855388e-02  1.5038867176335605e-02  8.4642795491158881e-03  3.7623993721488183e-03  9.4049928412881327e-04  -6.9728640928899128e-16  1.0000000000000007e+00  9.9830698110493132e-01  9.9325865851261419e-01  9.8495680267037400e-01  9.7356432102832047e-01  9.5928582694139752e-01  9.4235389474368902e-01  9.2302718039230014e-01  9.0166339967692566e-01  8.7863766333558746e-01  8.5411427077040014e-01  8.2818328679181819e-01  8.0090121723658314e-01  7.7232556379577988e-01  7.4256371713982838e-01  7.1183738797431251e-01  6.8029767154202314e-01  6.4789293800414105e-01  6.1489971378538311e-01  5.8182707885790208e-01  5.4869919284979618e-01  5.1580316775805135e-01  4.8357599457009021e-01  4.5193036877497017e-01  4.2072442702606649e-01  3.9014306775649266e-01  3.6074548184749455e-01  3.3283565955952155e-01  3.0624844075645141e-01  2.8079312616804208e-01  2.5645259986558783e-01  2.3309148882786623e-01  2.1057853179319072e-01  1.8871147842485875e-01  1.6751403377604601e-01  1.4709527520270699e-01  1.2758699148504393e-01  1.0897153634494737e-01  9.1275171921038081e-02  7.4890367928994658e-02  5.9911950554205513e-02  4.6226016716173580e-02  3.4088757256341723e-02  2.3722901921605012e-02  1.5202816407044979e-02  8.5587840628698914e-03  3.8058142172591671e-03  9.5167332468247025e-04  -7.2176330822956826e-16  9.9999999999999989e-01  9.9837423222247479e-01  9.9350604894846206e-01  9.8543652310397767e-01  9.7426899764321340e-01  9.6017730904288701e-01  9.4338464563275626e-01  9.2414236209292144e-01  9.0273266584514233e-01  8.7968039388433739e-01  8.5529249825063525e-01  8.2954161998453813e-01  8.0241315152822368e-01  7.7397354192634127e-01  7.4436184805579297e-01  7.1378509495031295e-01  6.8235268013669637e-01  6.5011144998545323e-01  6.1719454459664358e-01  5.8400495746078929e-01  5.5080887284912106e-01  5.1777408848013151e-01  4.8534125693672164e-01  4.5362809731262360e-01  4.2256018989833433e-01  3.9227337355378189e-01  3.6320771882100555e-01  3.3558956068468221e-01  3.0908145203418763e-01  2.8360058589674703e-01  2.5911596055533542e-01  2.3553815587527732e-01  2.1284823865438710e-01  1.9082940486489719e-01  1.6944263485913005e-01  1.4881066225351294e-01  1.2908757469851492e-01  1.1025811311573183e-01  9.2340670059000540e-02  7.5746612331546198e-02  6.0600328041545880e-02  4.6807557477930875e-02  3.4524677206639529e-02  2.4018154149610751e-02  1.5378610473286192e-02  8.6491319991123475e-03  3.8427656063340265e-03  9.6049735180440347e-04  -5.8805530047361275e-16  1.0000000000000002e+00  9.9841067568740305e-01  9.9365683321351561e-01  9.8578223232968665e-01  9.7486840099097838e-01  9.6105141959099527e-01  9.4452834469134417e-01  9.2554126676328619e-01  9.0437411312132487e-01  8.8139167476878488e-01  8.5705513661720245e-01  8.3142386030575421e-01  8.0444625859794072e-01  7.7621089299942081e-01  7.4687470702734282e-01  7.1659914503073219e-01  6.8541465343956398e-01  6.5337538381806859e-01  6.2067617426160848e-01  5.8756212658070928e-01  5.5438807323934314e-01  5.2139170794941814e-01  4.8884084493935931e-01  4.5694121485083955e-01  4.2580575986301827e-01  3.9565820206303842e-01  3.6691005994146048e-01  3.3951575700941827e-01  3.1306179777562226e-01  2.8752199097569892e-01  2.6286518904465056e-01  2.3896403649522979e-01  2.1595226403992773e-01  1.9365089255798087e-01  1.7197967426264868e-01  1.5105393897718120e-01  1.3104161891500321e-01  1.1192853644145545e-01  9.3728094129573974e-02  7.6878694882859713e-02  6.1516327032498076e-02  4.7559828221046478e-02  3.5120182876491789e-02  2.4462831057333750e-02  1.5677610109107513e-02  8.8212420597504181e-03  3.9195892246425886e-03  9.7958332324241896e-04  -1.1173811324363176e-15  1.0000000000000009e+00  9.9846054329980216e-01  9.9384881905027345e-01  9.8619513420853289e-01  9.7556556732013566e-01  9.6207495258336828e-01  9.4589360463985173e-01  9.2726052813236204e-01  9.0648827031781987e-01  8.8385711940844058e-01  8.5967297844854995e-01  8.3417388710674156e-01  8.0735908344354756e-01  7.7931420546612007e-01  7.5017449219184673e-01  7.2015512884334432e-01  6.8928767733544538e-01  6.5750761897720178e-01  6.2507497557776215e-01  5.9221657484950396e-01  5.5915120436602439e-01  5.2625500412128501e-01  4.9377290491470255e-01  4.6185609013218787e-01  4.3072371030052403e-01  4.0056690196721756e-01  3.7190247055096787e-01  3.4461000810844566e-01  3.1811641407272800e-01  2.9245689621157689e-01  2.6759887019048384e-01  2.4338308525309413e-01  2.1996845194103423e-01  1.9722295364951545e-01  1.7515090974099701e-01  1.5384361538401678e-01  1.3345980465781515e-01  1.1400267698323940e-01  9.5454845937822233e-02  7.8291182149632654e-02  6.2657825947215348e-02  4.8483012373992211e-02  3.5824327885413426e-02  2.4976157020142255e-02  1.6026899509056072e-02  9.0303106041353821e-03  4.0173037573055749e-03  1.0047576386810341e-03  -1.0301931837604815e-15  1.0000000000000007e+00  9.9852649010730476e-01  9.9410337619452549e-01  9.8673469985970186e-01  9.7645880980288768e-01  9.6336526623166430e-01  9.4760376445802141e-01  9.2941074739352814e-01  9.0910957228904488e-01  8.8689867454204918e-01  8.6298702640423430e-01  8.3775030193550837e-01  8.1120822067929055e-01  7.8343427955333200e-01  7.5452233282346748e-01  7.2461161214176817e-01  6.9392548105215168e-01  6.6249562246391425e-01  6.3034926464789498e-01  5.9771442302221134e-01  5.6485617001267852e-01  5.3208158842277176e-01  4.9966115115483167e-01  4.6777149722318678e-01  4.3678327994775545e-01  4.0673973887146153e-01  3.7809672775075337e-01  3.5078051589558706e-01  3.2418795794477612e-01  2.9835120090477257e-01  2.7324077655695178e-01  2.4870042222479935e-01  2.2488570076784312e-01  2.0162851386633190e-01  1.7902706876029265e-01  1.5722666384140860e-01  1.3636825322995458e-01  1.1649974008121843e-01  9.7535100280121079e-02  7.9976633414101869e-02  6.4002357255430478e-02  4.9531342546517906e-02  3.6612512749374722e-02  2.5516025764695471e-02  1.6369839774687010e