<?xml version="1.0"?>
<VTKFile type="UnstructuredGrid"  version="0.1"  >
<UnstructuredGrid>
<Piece  NumberOfPoints="2555" NumberOfCells="4406">
<Points>
<DataArray  type="Float64"  NumberOfComponents="3"  format="ascii">-20 2 0  -20 0 0  -1 0 0  -0.9996988186962042 0.02454122852291233 0  -0.9987954562051724 0.04906767432741797 0  -0.9972904566786902 0.07356456359966773 0  -0.9951847266721968 0.09801714032956083 0  -0.99247953459871 0.1224106751992163 0  -0.989176509964781 0.1467304744553618 0  -0.9852776423889412 0.1709618887603012 0  -0.9807852804032304 0.1950903220161286 0  -0.9757021300385285 0.21910124015687 0  -0.970031253194544 0.2429801799032641 0  -0.9637760657954398 0.2667127574748985 0  -0.9569403357322088 0.2902846772544624 0  -0.9495281805930367 0.3136817403988914 0  -0.9415440651830207 0.3368898533922203 0  -0.9329927988347388 0.3598950365349883 0  -0.9238795325112867 0.3826834323650899 0  -0.9142097557035307 0.4052413140049899 0  -0.9039892931234433 0.427555093430282 0  -0.8932243011955152 0.4496113296546069 0  -0.8819212643483549 0.4713967368259979 0  -0.8700869911087113 0.4928981922297841 0  -0.857728610000272 0.5141027441932218 0  -0.8448535652497071 0.5349976198870972 0  -0.8314696123025453 0.5555702330196022 0  -0.8175848131515836 0.5758081914178454 0  -0.8032075314806448 0.5956993044924335 0  -0.7883464276266062 0.6152315905806269 0  -0.773010453362737 0.6343932841636455 0  -0.7572088465064846 0.6531728429537766 0  -0.7409511253549589 0.6715589548470186 0  -0.7242470829514668 0.6895405447370671 0  -0.7071067811865475 0.7071067811865476 0  -0.6895405447370669 0.7242470829514669 0  -0.6715589548470184 0.740951125354959 0  -0.6531728429537765 0.7572088465064847 0  -0.6343932841636454 0.7730104533627371 0  -0.6152315905806267 0.7883464276266063 0  -0.5956993044924334 0.8032075314806449 0  -0.5758081914178453 0.8175848131515837 0  -0.555570233019602 0.8314696123025455 0  -0.534997619887097 0.8448535652497072 0  -0.5141027441932217 0.8577286100002721 0  -0.492898192229784 0.8700869911087115 0  -0.4713967368259977 0.881921264348355 0  -0.4496113296546067 0.8932243011955152 0  -0.4275550934302819 0.9039892931234434 0  -0.4052413140049897 0.9142097557035307 0  -0.3826834323650897 0.9238795325112867 0  -0.3598950365349882 0.9329927988347388 0  -0.3368898533922199 0.9415440651830208 0  -0.3136817403988914 0.9495281805930367 0  -0.2902846772544622 0.9569403357322089 0  -0.2667127574748983 0.9637760657954398 0  -0.2429801799032639 0.970031253194544 0  -0.2191012401568697 0.9757021300385286 0  -0.1950903220161282 0.9807852804032304 0  -0.1709618887603012 0.9852776423889412 0  -0.1467304744553616 0.989176509964781 0  -0.1224106751992162 0.99247953459871 0  -0.09801714032956065 0.9951847266721969 0  -0.07356456359966733 0.9972904566786902 0  -0.04906767432741801 0.9987954562051724 0  -0.02454122852291214 0.9996988186962042 0  6.123233995736766e-17 1 0  0.02454122852291226 0.9996988186962042 0  0.04906767432741813 0.9987954562051724 0  0.07356456359966745 0.9972904566786902 0  0.09801714032956077 0.9951847266721968 0  0.1224106751992163 0.99247953459871 0  0.1467304744553617 0.989176509964781 0  0.1709618887603014 0.9852776423889412 0  0.1950903220161283 0.9807852804032304 0  0.2191012401568698 0.9757021300385286 0  0.242980179903264 0.970031253194544 0  0.2667127574748984 0.9637760657954398 0  0.2902846772544623 0.9569403357322089 0  0.3136817403988916 0.9495281805930367 0  0.3368898533922201 0.9415440651830208 0  0.3598950365349883 0.9329927988347388 0  0.3826834323650898 0.9238795325112867 0  0.4052413140049899 0.9142097557035307 0  0.4275550934302822 0.9039892931234433 0  0.4496113296546066 0.8932243011955153 0  0.4713967368259978 0.8819212643483549 0  0.4928981922297841 0.8700869911087113 0  0.5141027441932217 0.8577286100002721 0  0.5349976198870973 0.844853565249707 0  0.5555702330196023 0.8314696123025452 0  0.5758081914178453 0.8175848131515837 0  0.5956993044924335 0.8032075314806448 0  0.6152315905806268 0.7883464276266062 0  0.6343932841636455 0.773010453362737 0  0.6531728429537768 0.7572088465064845 0  0.6715589548470183 0.7409511253549591 0  0.6895405447370669 0.7242470829514669 0  0.7071067811865476 0.7071067811865475 0  0.724247082951467 0.6895405447370668 0  0.7409511253549591 0.6715589548470183 0  0.7572088465064846 0.6531728429537768 0  0.773010453362737 0.6343932841636455 0  0.7883464276266063 0.6152315905806268 0  0.8032075314806449 0.5956993044924334 0  0.8175848131515837 0.5758081914178453 0  0.8314696123025452 0.5555702330196022 0  0.8448535652497071 0.5349976198870972 0  0.8577286100002721 0.5141027441932217 0  0.8700869911087115 0.492898192229784 0  0.881921264348355 0.4713967368259976 0  0.8932243011955153 0.4496113296546065 0  0.9039892931234433 0.4275550934302821 0  0.9142097557035307 0.4052413140049899 0  0.9238795325112867 0.3826834323650898 0  0.932992798834739 0.3598950365349881 0  0.9415440651830208 0.3368898533922201 0  0.9495281805930367 0.3136817403988915 0  0.9569403357322088 0.2902846772544623 0  0.9637760657954398 0.2667127574748984 0  0.970031253194544 0.2429801799032639 0  0.9757021300385286 0.2191012401568698 0  0.9807852804032304 0.1950903220161282 0  0.9852776423889412 0.1709618887603012 0  0.989176509964781 0.1467304744553617 0  0.99247953459871 0.1224106751992162 0  0.9951847266721969 0.0980171403295606 0  0.9972904566786902 0.07356456359966743 0  0.9987954562051724 0.04906767432741801 0  0.9996988186962042 0.02454122852291229 0  1 0 0  20 0 0  20 2 0  0 2 0  10 2 0  -10 2 0  10.5 0 0  5 2 0  -10.5 0 0  -5 2 0  15 2 0  5.75 0 0  2.5 2 0  -15 2 0  -5.75 0 0  -2.5 2 0  15.25 0 0  3.375 0 0  -15.25 0 0  -3.375 0 0  17.5 2 0  17.625 0 0  -17.625 0 0  -17.5 2 0  -12.5 2 0  -12.875 0 0  8.125 0 0  7.5 2 0  12.875 0 0  12.5 2 0  -8.125 0 0  -7.5 2 0  -18.75 2 0  -18.8125 0 0  18.75 2 0  18.8125 0 0  -16.25 2 0  -16.4375 0 0  16.4375 0 0  16.25 2 0  13.75 2 0  -14.0625 0 0  -13.75 2 0  11.6875 0 0  -11.6875 0 0  -9.3125 0 0  8.75 2 0  -8.75 2 0  6.9375 0 0  6.25 2 0  -6.9375 0 0  -6.25 2 0  9.3125 0 0  -11.25 2 0  11.25 2 0  3.75 2 0  4.5625 0 0  -4.5625 0 0  -3.75 2 0  1.25 2 0  -1.25 2 0  14.0625 0 0  2.1875 0 0  -2.1875 0 0  -20 1 0  20 1 0  18.21875 0.982421875 0  -18.21875 0.982421875 0  16.875 1.0498046875 0  -17.03125 0.966796875 0  15.625 1.0625 0  -15.84375 0.953125 0  14.375 1.0732421875 0  -14.375 1.0732421875 0  1.830289387965117 1.052284088108649 0  -1.830289387965117 1.052284088108649 0  -3.125 1.08203125 0  -13.28477656888586 1.012129001112436 0  13.125 1.08203125 0  3.125 1.08203125 0  -4.375 1.0888671875 0  11.875 1.0888671875 0  -11.875 1.0888671875 0  4.203765290519877 1.0193030867737 0  -5.625 1.09375 0  5.625 1.09375 0  -10.80634835916782 1.025744365312066 0  10.625 1.09375 0  9.375 1.0966796875 0  -6.875 1.0966796875 0  -9.375 1.0966796875 0  6.684990875912408 1.03136405109489 0  -8.322099415573495 1.036062682633283 0  8.125 1.09765625 0  19.11075969939671 0.8508947319664032 0  -19.11075969939671 0.8508947319664032 0  -7.53125 0 0  8.71875 0 0  7.423362102206937 0.6655467048188293 0  9.90625 0 0  -6.34375 0 0  -10.07209987056368 0.6864155791813131 0  -5.15625 0 0  4.932893941568688 0.70313517104756 0  11.09375 0 0  -3.96875 0 0  12.28125 0 0  -12.56167362378033 0.7158719711052053 0  -15.12789358749343 1.239622257084254 0  19.375 2 0  -19.375 2 0  -7.586458743762512 0.7777256637040587 0  -8.876841588719831 0.5749490497356908 0  -2.78125 0 0  13.46875 0 0  2.486351124110562 0.6882204272146759 0  -2.484375 0.6875496078884429 0  13.765625 0.6685592193186988 0  6.127605163798639 0.5971727330055587 0  0.625 2 0  -0.625 2 0  -1.146535794159178 1.28513409566998 0  1.146535794159178 1.285134095669981 0  14.65625 0 0  14.953125 0.6512707752786624 0  -14.87682753143027 0.5890664696931456 0  12.578125 0.6384885491877257 0  -3.671875 0.6384885491877257 0  -15.625 2 0  -11.36675239212577 0.6158089665857418 0  15.00271470412651 1.324726469417674 0  17.53235848397354 0.7266244978817956 0  11.390625 0.6116981677410314 0  -4.859375 0.6116981677410314 0  15.84375 0 0  16.140625 0.6148897058823529 0  7.497593266890831 1.330710907262048 0  13.76254792112057 1.334335181755445 0  -10.20969602084016 1.352738855957021 0  17.03125 0 0  3.639986821556412 0.6311208834101457 0  -2.422032960990368 1.344610008595471 0  -1.875 2 0  2.42168763602468 1.344854035092462 0  1.875 2 0  -6.046875 0.5879464285714285 0  10.203125 0.5879464285714285 0  4.785027294216357 1.360955117010924 0  -16.43327865604348 1.32661481258014 0  -16.44139997701004 0.663326532427168 0  -12.71719161438206 1.366886164755866 0  9.015625 0.567039754702805 0  -13.85227446991684 0.6433291643838606 0  17.68435132148515 1.367585767263021 0  -8.125 2 0  -7.779164034427432 1.405551895778211 0  6.875 2 0  -16.875 2 0  16.25211206745888 1.264109755085799 0  -3.748868614850469 1.292331074664245 0  12.50113138514953 1.292331074664245 0  -4.999425840599162 1.238293400364507 0  11.25057415940084 1.238293400364507 0  10.00021284174179 1.186027320246887 0  -6.249787158258211 1.186027320246887 0  8.750028772491092 1.133996757348608 0  8.125 2 0  -9.375 2 0  -6.875 2 0  9.375 2 0  10.625 2 0  5.625 2 0  -5.625 2 0  -11.875 2 0  11.875 2 0  -4.375 2 0  3.125 2 0  13.125 2 0  -14.375 2 0  14.375 2 0  15.625 2 0  -18.125 2 0  16.875 2 0  -3.125 2 0  -10.625 2 0  4.375 2 0  -13.125 2 0  18.125 2 0  -17.62042339570457 1.322431301452557 0  -17.64048254773117 0.661277151197267 0  -1.59375 0 0  1.59375 0 0  -19.40625 0 0  19.40625 0 0  20 0.5 0  19.0625 1.466926268772181 0  -18.7305243036722 1.362703047674974 0  -5.451064633443578 0.5209722999527524 0  10.79893536655642 0.5209722999527524 0  9.610417111950763 0.5183010867631196 0  -13.46875 0 0  3.96875 0 0  -11.09375 0 0  6.34375 0 0  2.78125 0 0  -8.71875 0 0  -12.28125 0 0  5.15625 0 0  -9.90625 0 0  7.53125 0 0  -15.84375 0 0  -17.03125 0 0  -18.21875 0 0  18.21875 0 0  -14.65625 0 0  20 1.5 0  -19.48071156660626 1.370757229128913 0  -20 0.5 0  -4.24552725411087 0.5169543671041
[...]
<PointData  Scalars="f_10280"> 
<DataArray  type="Float64"  Name="f_10280"  format="ascii">-6.6096770496150421e-07  -8.4222588470147578e-07  -4.0544455027775253e-07  -4.5777241486674872e-07  -5.0811385088381282e-07  -5.8872213191503254e-07  -6.4385888563040155e-07  -8.3335212315986085e-07  -9.0243999134915433e-07  -1.2676290398585580e-06  -7.1520756577416267e-07  -1.4758520032975423e-06  -1.6734739832227990e-06  -2.3517647962356381e-06  -2.5357921399766924e-06  -3.5825405819289323e-06  -3.8792656195674733e-06  -4.3629158356603038e-06  -6.0902218809807247e-06  -6.3766988921444336e-06  -4.7232119162073727e-06  -6.5853815125251735e-06  -7.9064523036168948e-06  -8.9368211557756538e-06  -5.8749876161668126e-06  -7.3800677031149645e-06  -1.0336607084693526e-05  -1.0756155831348873e-05  -1.1028507004418570e-05  -1.2366035302818963e-05  -1.2983647048955129e-05  -1.2682930583209764e-05  -1.5503455056584754e-05  -1.5711418826947698e-05  -1.5551150089697043e-05  -1.4822272073033788e-05  -1.4230923693669075e-05  -1.4695576571394663e-05  -1.6703095240650248e-05  -1.7109578710887007e-05  -1.4813194538170019e-05  -1.6594967019342495e-05  -1.6737841174895234e-05  -1.6138134417337467e-05  -1.5190118017248684e-05  -1.5305290764939286e-05  -1.1556639242920649e-05  -1.7275384900071640e-05  -1.6940914630622017e-05  -1.5433458127234881e-05  -1.4402243214012100e-05  -1.3025999098985926e-05  -1.4495737130411336e-05  -1.3646677224431333e-05  -1.1977062474997771e-05  -1.0451160268584750e-05  -8.8613668179006719e-06  -8.3620925099814941e-06  -7.9131379913434752e-06  -6.9034381434524323e-06  -5.7962932461769724e-06  -5.7515238902607286e-06  -4.6034798702958162e-06  -3.0749459188580566e-06  -2.3636349746066278e-06  -1.1416346323713838e-06  7.8546727601750057e-08  1.1036579511531859e-06  2.0217924145648503e-06  3.4886721966801536e-06  4.6787026629182925e-06  5.1093394686618063e-06  5.7085695596027233e-06  7.2306938505961685e-06  7.9946584783881336e-06  9.1643619623649447e-06  1.0318421591706731e-05  1.1784923913284621e-05  8.8922730369903784e-06  1.2266355268953339e-05  1.2768662329788214e-05  1.5261420480638770e-05  1.5735879618049512e-05  1.4155404364643302e-05  1.5313356734966624e-05  1.5898032395443013e-05  1.5244886620007659e-05  1.5127741998054053e-05  1.4035897358557021e-05  1.4455448398046986e-05  1.5379020574649518e-05  1.5641794317337082e-05  1.5318228140336461e-05  1.6202012292705128e-05  1.6869980024227773e-05  1.6814381212539222e-05  1.5846156818979447e-05  1.5164284446243168e-05  1.5084622269691380e-05  1.4025531870729688e-05  1.3075517252129872e-05  1.1916343958841380e-05  1.3631258677326894e-05  1.3405506321733903e-05  1.0886675568153985e-05  1.1277976057072493e-05  1.1363906738237804e-05  1.1700390335049691e-05  1.0689009215955566e-05  8.7156225782943672e-06  9.1978591328771518e-06  6.0494721914603775e-06  3.7779259647510629e-06  4.3626504676767486e-06  3.7711008622029547e-06  2.9499908877786742e-06  3.1172870526727981e-06  2.6787332272199959e-06  2.6397541961578852e-06  2.4434688727247304e-06  1.7281529210465818e-06  1.4449701334087185e-06  1.4160639278723558e-06  1.2687009338012456e-06  8.8935237832331190e-07  7.8716726386482953e-07  6.4453465474032041e-07  5.6337266853847731e-07  5.1645536811788638e-07  4.5746250273321643e-07  4.0560367636592758e-07  2.5212928685866274e-09  -2.5946344609985621e-07  -4.8872485926315272e-08  6.2639351284933015e-08  -1.3990362549035187e-08  -2.0829954937753682e-10  -1.7343502133191249e-08  1.8531143554109675e-10  -7.4067535942036460e-08  4.0657331192444570e-08  1.2675938379150794e-09  -5.0692303212110653e-09  -4.0084279412096295e-08  -5.5305149427888246e-10  -6.5910739202363510e-08  -2.0014341377752757e-11  9.3174799732304112e-09  1.7625251962469858e-09  -6.0667425626286049e-09  9.3614375855497352e-08  7.5923509216770714e-10  4.4086797345745569e-09  2.8480155448098595e-08  -1.5726538066623824e-08  1.0864709063712962e-09  1.0963078121192261e-09  2.8308340165506609e-08  4.2097752030310937e-10  -8.4317813185962217e-08  -1.0999263226761029e-09  5.2652268374971980e-09  8.5990543927163087e-08  2.6782374306772242e-11  9.1625179658034743e-09  4.5916206761462113e-10  2.6018507758319363e-08  -9.9371818609329135e-11  1.0673040516727068e-10  7.7066154769160377e-08  -1.6063821143776375e-08  -1.0598616336230318e-10  3.3119671900505078e-09  2.3346872226904137e-10  5.5801490283070690e-09  1.2583051243363864e-10  -6.0164245439729542e-08  -8.2696738025979406e-10  -1.3723950239055135e-10  -1.9076492068318183e-08  5.0875377208766332e-10  4.2470542233085206e-08  4.9220491485242802e-11  -2.3505405592119405e-08  -8.1420585637247955e-08  -2.1739753585367157e-08  1.1712503828638181e-09  -9.4150147746526516e-10  -7.8498282710619863e-08  -1.2957059969418603e-07  5.9997272485759034e-08  1.5581170631576136e-09  3.5803834864519560e-08  -3.8080452476941442e-08  -3.6826620741838881e-07  5.4560862270314672e-11  1.8455355909011992e-09  4.3676611198179046e-10  3.6945272931209208e-09  -9.1481765539228477e-10  -1.4576982134712497e-09  -2.5056347160317062e-09  1.9998841765096362e-10  -3.8292502808626425e-09  -1.9435848269397738e-08  1.2569173779432388e-08  7.6305098143049371e-09  3.9471932312254946e-10  -2.1827191167200894e-09  -3.2505756251757850e-09  5.6211466688482581e-09  4.3032594085532491e-09  -9.0194454617327812e-11  2.5530332939455405e-09  3.8484052635276729e-09  -2.2758413226768118e-09  3.4254507736520309e-09  -5.6269354988019441e-10  8.2074830555691442e-10  5.8074000151618877e-10  1.4334231351356647e-09  -5.2130939795407665e-10  1.7736515643612216e-09  -5.6375602215748591e-09  5.6243346319597153e-10  -1.8074261866531680e-08  1.0722520745343492e-09  3.6560975345942262e-10  -2.7913044232664404e-10  1.3401828554465198e-09  -7.2434225310538336e-10  -5.7222429734492502e-10  2.1132676334171806e-10  -2.0912509237474393e-11  2.8905168639096599e-10  1.3136678668742318e-09  1.2063606309372514e-10  3.8939169894825723e-10  -3.8991943582982823e-09  -2.5868423846285655e-08  -1.8960245499180396e-08  -1.0392604581154063e-09  1.1492639270483387e-10  -1.1931950126992036e-08  -5.5683903303886225e-10  1.9651620879135953e-08  -9.5891578816227034e-09  1.9162062034130677e-10  -3.9639758722179192e-10  -1.1457803858300882e-07  1.0038945214468624e-07  1.4205253645200671e-07  -1.3509640672277356e-07  2.2344542772498324e-10  -6.5236738929817613e-11  3.8118720493296819e-10  3.2289641667571205e-10  -1.4117374151933025e-09  1.5690993245386605e-08  1.0785421533648556e-10  -8.0830397347757420e-10  1.2839760640160334e-09  3.1203069398485579e-12  -7.3192004421083595e-11  1.1097826735015856e-09  1.4358123108517962e-09  -8.9107307711242847e-10  -1.6738843597746828e-08  7.6381569055123224e-09  3.1742524152779784e-10  4.0688580042553710e-10  3.6962963857112336e-11  4.0683129674731331e-08  -6.3855613845399224e-09  -1.0367614260039341e-07  -1.2454500983617099e-10  7.8698458720206838e-10  2.4956129804056736e-09  3.5588544069306486e-10  -3.4073712414602584e-10  -1.0781817394463250e-08  3.2378123619162581e-10  -4.2314780752248296e-10  -3.3770678691193401e-09  -5.4768340694205090e-10  -1.8811924585828625e-08  -3.5363899950244053e-08  3.2900081596219324e-08  1.1250743314317618e-08  -1.0000562562127608e-08  -1.2070067955871837e-08  3.0870593997904364e-09  -9.4624816942146131e-09  1.7323978291957341e-08  6.1952352852817065e-09  -1.4683226118827862e-08  1.0729338570719843e-08  6.8842534490915726e-08  -4.7257787517561466e-10  -7.1573856957862323e-10  4.3597071387485817e-09  6.8308674115881640e-08  -1.0546780209286874e-08  6.2276051724693445e-08  1.2364258309225483e-08  1.2419732864779347e-08  2.4618947051570178e-08  -1.2577008292801590e-08  6.3304929082690815e-08  2.6639913612686265e-08  -7.4387899583794741e-09  4.4567025335911783e-08  -2.4089056016907826e-08  -4.1759170050319420e-09  -4.1459149487441559e-08  -4.4168065153829805e-08  -1.0728398359215438e-08  4.1744081204196551e-08  5.2270793119798658e-10  -4.1989450075122555e-10  -1.5250752305110353e-07  9.9884265857247110e-08  1.1962730517111585e-08  5.6068886306679016e-10  5.0191588106879580e-09  3.3503906732520489e-09  -2.6350526039829871e-09  -1.7815138819304814e-12  -4.3414602101682013e-11  2.5030751398534433e-09  3.8230969405174903e-10  2.3865653685914676e-09  6.1122963733971892e-10  1.9485913240266501e-10  1.6296743387824594e-08  2.9679495026897921e-09  -9.7292186665860830e-10  5.9459995788155687e-10  -1.5937413509618573e-09  -2.7242574696968535e-10  7.1378522871283213e-10  -2.9864427213978344e-10  -1.1795106866958802e-09  6.3958036110473934e-10  3.0186081603599191e-10  -3.2375445740035914e-08  8.0109229345601039e-08  -5.4842654797272508e-07  -5.3453543868478435e-11  2.7430640481476543e-10  -6.1068201952679531e-10  -1.8101657461998788e-09  -2.5683722707963089e-08  5.9543386329309340e-10  4.7012106595792914e-10  -7.2822633902238143e-11  -4.8764406679367473e-09  4.3770951111909883e-09  -4.5063853846023921e-08  3.1729828895701421e-08  -1.1453472583922647e-10  5.9208892366772661e-10  -1.4175455849426041e-08  7.5413953036735662e-11  -1.5197583345780760e-08  -1.4538412713024131e-07  1.1817316701170650e-07  -8.8775118174392620e-09  -1.6038551492308366e-09  -8.4026469154484292e-09  3.1330890589732269e-10  -7.9023293178873731e-09  -4.6919783238045644e-09  3.3673016255967005e-10  -7.2760479836372604e-09  -1.7623050106790741e-09  -1.0899031406358285e-08  -6.4943099083581117e-10  4.6216121219581447e-10  3.0013216702114939e-09  1.5383278391662355e-09  1.9800812255851447e-09  7.7883762680151949e-10  3.7934738299468516e-09  -4.4536813112474435e-09  -2.1737195792986413e-08  9.4119871976251639e-09  -3.3955419850907695e-09  5.2177372218707306e-10  1.2602878701440498e-08  1.2519317075309968e-09  5.3375745277752240e-09  7.0671066759554716e-09  -1.7135403957009313e-08  -2.4703811020101746e-08  -8.1502813879896520e-10  1.8678382264967782e-09  6.6416946769752212e-09  -1.3075049452939090e-08  -1.0207615810025020e-08  -4.8031305712151368e-10  2.7538855140405857e-09  3.7729931268050011e-08  -7.3045078693872048e-08  3.1394269909269136e-08  2.5344013390872418e-09  -2.1071415845699989e-08  -1.9251353129019001e-07  8.2077133837430267e-10  -2.2697613065364154e-09  4.8585032627832313e-11  -2.1760274363971873e-09  3.7239765456496325e-10  8.4936921978125134e-10  2.4153002798664655e-09  2.1585446384602279e-08  1.7957473197137041e-09  1.6621008808157546e-09  1.1825958650937681e-09  1.6441877835646374e-09  1.3875935535909660e-09  -5.9345404001050021e-09  -3.2289972677976374e-09  1.4778990591825493e-09  4.2443530693900804e-10  -3.0956061068489291e-09  3.6527513231489913e-09  -1.8618826214621109e-08  -1.6798225929525200e-08  9.9219016525814722e-09  1.0097865812498074e-08  2.7735663915118089e-09  -3.2496817590166157e-09  -5.4431982796282991e-09  3.4916083495772760e-09  2.1715450085155303e-08  -1.5424826153922749e-08  7.1516480712921921e-11  1.6527486619500319e-09  1.6787623333050470e-08  -3.3955713107963681e-09  2.9154749049525276e-09  1.8138759082848852e-08  -2.2344590734105870e-08  1.1926273042058002e-07  -1.4826054375314680e-07  7.2390947151238751e-10  -2.3030593199339471e-09  3.6518095464605773e-10  -5.1321140999059568e-10  -1.5633188445276373e-09  4.0044216164344982e-09  1.7972734273459270e-09  -7.4895652823130113e-10  9.4301270222739707e-08  2.1417994650553448e-07  -2.0618645989003272e-07  -1.2513445514805916e-09  -6.9238780531003972e-11  1.0534699421866334e-09  2.9466220854497919e-10  -6.1174723128885041e-08  7.8214204500842386e-10  1.1030301365533393e-09  1.8692749106961898e-09  -2.3434078543702536e-08  2.3975778504210382e-10  5.0785848853142523e-09  -2.4559579283908484e-08  1.5895197052829019e-08  6.3228214527358187e-10  1.2425567927510988e-08  1.8275490294291585e-09  1.1263443445130704e-10  4.4157608101820267e-10  2.5886923450982206e-08  -2.3537833708659936e-09  -1.9933664932502957e-07  2.1148286052716959e-09  5.2608109659670045e-10  1.0917092985233936e-09  -1.3397000521000032e-10  3.4255240979783883e-08  5.4816078704123275e-10  5.3956659639386205e-10  -2.7981426555219960e-08  -4.3436619093136981e-10  1.1398806569404035e-09  -2.2758468046313596e-10  -1.2537702402606869e-09  -2.3011636846770576e-09  3.5067592835099116e-08  1.2681241698606476e-08  -1.1767644049310218e-07  -5.1306635554628502e-08  1.3334984568398617e-09  -1.8841535714964528e-10  7.5542759345668203e-09  3.4224925741358562e-09  -5.1798236115606565e-08  -1.0224323955826601e-07  -7.1995276976686629e-11  7.2541846731057470e-09  -1.6215963135969440e-09  2.5552847355330422e-08  1.3598223228808592e-08  -3.5488883311750642e-09  4.7584721555611566e-10  -1.1979124837079555e-08  -2.7357704991758159e-08  6.3460598412379391e-09  1.1635926640142005e-07  1.6659346179093101e-08  -5.7425929963103251e-09  -1.0899766067591085e-10  -2.0366842942236376e-08  -4.1213193362111288e-08  3.1098554054970165e-10  -3.8421450285193732e-08  7.5676991125691845e-08  2.6856697627470756e-10  -7.2270658465041724e-08  1.3369574320718331e-09  8.7465621666829969e-12  3.0404505983080694e-10  -1.6405992945695797e-08  -4.1820955888996419e-08  -1.3634605049729128e-09  3.1712853879433780e-09  3.8725492694815281e-11  -4.4621988623068231e-09  1.5680736426259531e-09  -2.5875721998064609e-08  2.9751978669277450e-09  -2.7765479542159448e-07  2.1761753474305024e-09  3.1872712909701690e-08  1.0865801054523058e-09  -1.7386952597940671e-10  1.9739792782651756e-10  -2.2024068511891456e-09  1.8812579314409989e-09  1.2568227033092231e-09  4.1638916602416674e-08  4.0540025541646384e-08  -1.3460126512655973e-10  2.7279453843882698e-10  3.6181515245522711e-10  2.0049825443541012e-08  -1.2986540391283488e-09  2.5483297925657171e-10  -7.2249623630541084e-11  -4.1902846820542194e-09  -3.4705862854868520e-09  4.0273780773048545e-10  8.3713412632462734e-10  -2.9665957277666766e-10  -1.2676997938610793e-09  1.5314323684997223e-08  1.6979618288524753e-10  1.0790792693317582e-09  -2.0058182621415277e-09  2.1813778899874769e-10  -5.6788350851101767e-11  7.9547565304858654e-10  -2.3384043819120156e-10  -4.3181077608441642e-08  -7.4440742380786919e-08  3.9194209139968010e-08  -2.0031372980289520e-09  -5.4608058896470672e-10  -2.0011989700263003e-08  1.9235297915523347e-09  -3.9701027919281064e-08  3.1490082508346922e-10  -2.4070372167635692e-10  -3.4016115729259248e-08  2.7385025487644796e-09  3.4040155217434902e-09  4.6314891016386944e-10  -2.2380694773823188e-09  -1.5413033723982881e-09  -3.4647422698088902e-11  -2.1093721390535532e-10  -9.4950884831661669e-11  5.9710509795583006e-09  2.8549803151896361e-08  2.3062571112983632e-08  -6.9717083305688096e-10  -1.4848793989600424e-09  -7.5353381856076626e-11  2.7726101746900820e-10  -3.7018376134019497e-11  -7.1250556155393126e-11  -3.4681681073464335e-10  1.8965442318341124e-11  -1.9237266754590997e-10  4.0653587163655725e-11  -5.4215208736115916e-10  -2.2837619142364651e-09  1.6629458215579373e-10  -2.2274750898742397e-10  -2.8793866474363176e-09  2.6549684154183093e-08  2.3506136235680498e-08  5.1841422138205921e-10  -1.8490960150277359e-09  -6.1701079110124109e-10  2.4013135726730096e-09  2.7351899778663214e-09  3.1058396103062552e-10  -5.7831889011095164e-10  3.7119674065118145e-08  -7.0810090792034482e-08  2.8902151196610670e-09  -1.2939640402229418e-10  2.5005701666723454e-10  -4.7203221256567251e-09  -1.1800864565711005e-08  -8.0404108348101383e-10  -1.0062442333049098e-07  1.1046908387078515e-09  -8.1967328052557267e-09  -1.1525694733514311e-10  2.6049757029098509e-10  -2.2914993067648877e-08  -5.3532200465839003e-10  2.4946929114565395e-09  -1.3982677753117380e-09  -2.4330190200852603e-08  -1.0268443275115997e-08  -8.4942411019900069e-10  -3.3419712999929204e-09  -8.4305558013859374e-10  -4.5828484031280845e-09  -4.8452232751591689e-10  -2.1096145388696485e-11  -1.3407348763922945e-10  -1.7251167721218440e-10  1.2115536641006233e-10  -5.0142605490908880e-11  4.1199794066595192e-08  7.8951763525092124e-09  2.6170054357548584e-09  7.0179025661041148e-10  -9.8311000181239308e-11  2.7778777163830128e-10  3.5771732957252671e-08  1.4427427317183009e-09  3.5912778620112610e-10  -3.8028134195957800e-09  3.8251635721951347e-09  3.1431803200527746e-09  4.4315657919828705e-09  6.2381647545929259e-10  4.3053157557120652e-10  1.1442634287453288e-08  1.0555273642323653e-08  4.4470475043767531e-10  -2.3787538925790516e-07  2.3688037565272060e-07  -1.6342594868882803e-08  5.0392395269235824e-09  -1.9245107709732227e-08  2.6362476744427180e-09  3.0571781472609422e-09  -3.6938439124831474e-10  -7.6584765777417290e-10  7.8461598887893445e-11  -2.4420007170855554e-08  -4.4253212345422656e-07  2.4000333371029111e-08  8.5899533863436788e-10  -2.9730465984706673e-08  -2.9339719977356064e-07  -3.3015012360349685e-10  9.1971237437642584e-08  6.9869114889353657e-08  3.3278991309617333e-08  6.9375269616988342e-10  -7.8646202748911899e-09  1.6426177619807193e-07  -1.3026663477859497e-07  1.0593527252416520e-08  2.8908823128148853e-08  2.2774783483642767e-08  1.7721542128477484e-10  -1.0388408288731523e-10  1.2891561423277823e-08  -1.2400999001877409e-09  -9.1246423376548001e-08  9.7232953157252232e-08  -1.3012342448706111e-08  -9.3056513349082662e-11  -1.1861442244306149e-08  -6.9030538820615218e-09  -2.4642149821208093e-10  1.5301807405085028e-09  2.0053175442280362e-09  3.2049103167102283e-09  -9.9421217758015009e-09  -3.4105175789208530e-09  -2.4033179579646464e-09  8.7753475631182072e-10  -3.0870679800020724e-09  -1.1429984051026749e-08  -4.3434807967377231e-08  -6.0467959156956455e-08  -1.2925898347165012e-07  1.1326229226921065e-07  1.0310542652780689e-09  -5.4243389072117106e-08  -6.7669398996736647e-08  4.0414005001008511e-08  4.7263158470101812e-08  1.8255742282598407e-08  1.7587966887334068e-08  3.8524938507100324e-08  -3.9956735516811869e-08  -3.8682171526215420e-08  4.3098563952414206e-08  3.9512564877858969e-08  1.0523870391814342e-08  1.2890829047289028e-09  -2.4185693999097203e-08  7.9085048344444583e-08  3.1736197125563132e-08  5.6532608562175769e-08  -1.9503551147137865e-09  -8.0500194508363209e-10  -4.7491166482269450e-08  6.2677736134119934e-09  -3.6701934515302544e-08  1.6902900513518727e-08  1.3166050532798489e-08  2.9079772101289275e-08  2.7243342019132172e-08  1.4211855268299412e-08  -1.0032866045977416e-08  3.0685171090540376e-08  3.0389998224492737e-08  1.5674457606972870e-08  1.8656283487987929e-09  -5.1245544600722808e-08  3.7325199386837723e-08  2.0336118001632023e-08  3.4452402141822113e-08  -4.5950253470960221e-08  2.4431701973391913e-08  8.3086008985742344e-08  3.7696711943663366e-08  4.4365714991195020e-08  4.6804690621380116e-08  -1.5601530172273093e-08  1.5189963998523553e-08  -1.4836466399567496e-08  6.8022391767030427e-10  4.9716043012422344e-08  6.0788932161140230e-08  7.2954798890032311e-10  -9.2231517385104403e-09  -4.4551913076245330e-10  -9.7742151864098058e-10  -7.9030291625756813e-09  -1.2539819868552418e-08  1.1918015589980509e-09  -4.5842909029540960e-09  7.2319603743517063e-09  6.5046537809268792e-09  -6.1288086958043218e-10  5.3444752751510592e-10  6.3988671642672722e-11  1.9515930830571535e-07  6.4358688174152136e-10  1.6338272493795725e-08  -1.6273181701898394e-07  -3.2138664131648137e-08  -3.9689801862833347e-09  -2.0083101047926304e-07  4.2816037464333953e-11  -1.1246801311107014e-09  -4.2294636932218710e-10  8.3446169066944742e-10  -5.5746911909907459e-08  2.0202141044230896e-08  -2.1753771515804356e-09  -9.6751122780746944e-09  -3.8035837979207868e-10  3.2420067876543933e-09  2.3013257571502563e-10  7.9580700152234097e-10  -3.9267087095021163e-08  -9.0705011418873145e-11  -3.7963201595017828e-10  2.2132978175370850e-08  -9.3769805436529056e-10  3.8194123247991269e-08  2.8791278687354236e-10  -5.3615186903192862e-10  -1.7899890072309001e-09  6.4408697457476357e-10  3.1420358501534453e-09  -1.2935807082661040e-09  2.1664438791815632e-08  -4.0883603684607163e-10  -1.4847072748000238e-09  -8.7576049387760909e-09  8.2487376238148841e-11  4.2551624212302087e-10  -1.0825613749737840e-09  -1.8300471724174146e-10  -1.1499133016594664e-10  1.7022352388991599e-09  1.4263418571