<?xml version="1.0"?>
<VTKFile type="UnstructuredGrid"  version="0.1"  >
<UnstructuredGrid>
<Piece  NumberOfPoints="2555" NumberOfCells="4406">
<Points>
<DataArray  type="Float64"  NumberOfComponents="3"  format="ascii">-20 2 0  -20 0 0  -1 0 0  -0.9996988186962042 0.02454122852291233 0  -0.9987954562051724 0.04906767432741797 0  -0.9972904566786902 0.07356456359966773 0  -0.9951847266721968 0.09801714032956083 0  -0.99247953459871 0.1224106751992163 0  -0.989176509964781 0.1467304744553618 0  -0.9852776423889412 0.1709618887603012 0  -0.9807852804032304 0.1950903220161286 0  -0.9757021300385285 0.21910124015687 0  -0.970031253194544 0.2429801799032641 0  -0.9637760657954398 0.2667127574748985 0  -0.9569403357322088 0.2902846772544624 0  -0.9495281805930367 0.3136817403988914 0  -0.9415440651830207 0.3368898533922203 0  -0.9329927988347388 0.3598950365349883 0  -0.9238795325112867 0.3826834323650899 0  -0.9142097557035307 0.4052413140049899 0  -0.9039892931234433 0.427555093430282 0  -0.8932243011955152 0.4496113296546069 0  -0.8819212643483549 0.4713967368259979 0  -0.8700869911087113 0.4928981922297841 0  -0.857728610000272 0.5141027441932218 0  -0.8448535652497071 0.5349976198870972 0  -0.8314696123025453 0.5555702330196022 0  -0.8175848131515836 0.5758081914178454 0  -0.8032075314806448 0.5956993044924335 0  -0.7883464276266062 0.6152315905806269 0  -0.773010453362737 0.6343932841636455 0  -0.7572088465064846 0.6531728429537766 0  -0.7409511253549589 0.6715589548470186 0  -0.7242470829514668 0.6895405447370671 0  -0.7071067811865475 0.7071067811865476 0  -0.6895405447370669 0.7242470829514669 0  -0.6715589548470184 0.740951125354959 0  -0.6531728429537765 0.7572088465064847 0  -0.6343932841636454 0.7730104533627371 0  -0.6152315905806267 0.7883464276266063 0  -0.5956993044924334 0.8032075314806449 0  -0.5758081914178453 0.8175848131515837 0  -0.555570233019602 0.8314696123025455 0  -0.534997619887097 0.8448535652497072 0  -0.5141027441932217 0.8577286100002721 0  -0.492898192229784 0.8700869911087115 0  -0.4713967368259977 0.881921264348355 0  -0.4496113296546067 0.8932243011955152 0  -0.4275550934302819 0.9039892931234434 0  -0.4052413140049897 0.9142097557035307 0  -0.3826834323650897 0.9238795325112867 0  -0.3598950365349882 0.9329927988347388 0  -0.3368898533922199 0.9415440651830208 0  -0.3136817403988914 0.9495281805930367 0  -0.2902846772544622 0.9569403357322089 0  -0.2667127574748983 0.9637760657954398 0  -0.2429801799032639 0.970031253194544 0  -0.2191012401568697 0.9757021300385286 0  -0.1950903220161282 0.9807852804032304 0  -0.1709618887603012 0.9852776423889412 0  -0.1467304744553616 0.989176509964781 0  -0.1224106751992162 0.99247953459871 0  -0.09801714032956065 0.9951847266721969 0  -0.07356456359966733 0.9972904566786902 0  -0.04906767432741801 0.9987954562051724 0  -0.02454122852291214 0.9996988186962042 0  6.123233995736766e-17 1 0  0.02454122852291226 0.9996988186962042 0  0.04906767432741813 0.9987954562051724 0  0.07356456359966745 0.9972904566786902 0  0.09801714032956077 0.9951847266721968 0  0.1224106751992163 0.99247953459871 0  0.1467304744553617 0.989176509964781 0  0.1709618887603014 0.9852776423889412 0  0.1950903220161283 0.9807852804032304 0  0.2191012401568698 0.9757021300385286 0  0.242980179903264 0.970031253194544 0  0.2667127574748984 0.9637760657954398 0  0.2902846772544623 0.9569403357322089 0  0.3136817403988916 0.9495281805930367 0  0.3368898533922201 0.9415440651830208 0  0.3598950365349883 0.9329927988347388 0  0.3826834323650898 0.9238795325112867 0  0.4052413140049899 0.9142097557035307 0  0.4275550934302822 0.9039892931234433 0  0.4496113296546066 0.8932243011955153 0  0.4713967368259978 0.8819212643483549 0  0.4928981922297841 0.8700869911087113 0  0.5141027441932217 0.8577286100002721 0  0.5349976198870973 0.844853565249707 0  0.5555702330196023 0.8314696123025452 0  0.5758081914178453 0.8175848131515837 0  0.5956993044924335 0.8032075314806448 0  0.6152315905806268 0.7883464276266062 0  0.6343932841636455 0.773010453362737 0  0.6531728429537768 0.7572088465064845 0  0.6715589548470183 0.7409511253549591 0  0.6895405447370669 0.7242470829514669 0  0.7071067811865476 0.7071067811865475 0  0.724247082951467 0.6895405447370668 0  0.7409511253549591 0.6715589548470183 0  0.7572088465064846 0.6531728429537768 0  0.773010453362737 0.6343932841636455 0  0.7883464276266063 0.6152315905806268 0  0.8032075314806449 0.5956993044924334 0  0.8175848131515837 0.5758081914178453 0  0.8314696123025452 0.5555702330196022 0  0.8448535652497071 0.5349976198870972 0  0.8577286100002721 0.5141027441932217 0  0.8700869911087115 0.492898192229784 0  0.881921264348355 0.4713967368259976 0  0.8932243011955153 0.4496113296546065 0  0.9039892931234433 0.4275550934302821 0  0.9142097557035307 0.4052413140049899 0  0.9238795325112867 0.3826834323650898 0  0.932992798834739 0.3598950365349881 0  0.9415440651830208 0.3368898533922201 0  0.9495281805930367 0.3136817403988915 0  0.9569403357322088 0.2902846772544623 0  0.9637760657954398 0.2667127574748984 0  0.970031253194544 0.2429801799032639 0  0.9757021300385286 0.2191012401568698 0  0.9807852804032304 0.1950903220161282 0  0.9852776423889412 0.1709618887603012 0  0.989176509964781 0.1467304744553617 0  0.99247953459871 0.1224106751992162 0  0.9951847266721969 0.0980171403295606 0  0.9972904566786902 0.07356456359966743 0  0.9987954562051724 0.04906767432741801 0  0.9996988186962042 0.02454122852291229 0  1 0 0  20 0 0  20 2 0  0 2 0  -10 2 0  10 2 0  -10.5 0 0  -5 2 0  10.5 0 0  5 2 0  -15 2 0  -5.75 0 0  -2.5 2 0  15 2 0  5.75 0 0  2.5 2 0  -15.25 0 0  -3.375 0 0  15.25 0 0  3.375 0 0  -17.625 0 0  -17.5 2 0  17.5 2 0  17.625 0 0  8.125 0 0  7.5 2 0  12.875 0 0  12.5 2 0  -12.5 2 0  -12.875 0 0  -8.125 0 0  -7.5 2 0  -18.75 2 0  -18.8125 0 0  18.75 2 0  18.8125 0 0  16.4375 0 0  16.25 2 0  -16.25 2 0  -16.4375 0 0  13.75 2 0  -14.0625 0 0  -13.75 2 0  -11.6875 0 0  11.6875 0 0  -9.3125 0 0  8.75 2 0  -8.75 2 0  6.9375 0 0  6.25 2 0  -6.9375 0 0  -6.25 2 0  9.3125 0 0  11.25 2 0  -11.25 2 0  3.75 2 0  4.5625 0 0  -4.5625 0 0  -3.75 2 0  -1.25 2 0  1.25 2 0  14.0625 0 0  2.1875 0 0  -2.1875 0 0  -20 1 0  20 1 0  18.21875 0.982421875 0  -18.21875 0.982421875 0  16.875 1.0498046875 0  -17.03125 0.966796875 0  -15.84375 0.953125 0  15.625 1.0625 0  14.375 1.0732421875 0  -14.375 1.0732421875 0  1.830289387965117 1.052284088108649 0  -1.830289387965117 1.052284088108649 0  -3.125 1.08203125 0  -13.28477656888586 1.012129001112436 0  13.125 1.08203125 0  3.125 1.08203125 0  -4.375 1.0888671875 0  11.875 1.0888671875 0  -11.875 1.0888671875 0  4.203765290519877 1.0193030867737 0  -5.625 1.09375 0  5.625 1.09375 0  10.625 1.09375 0  -10.80634835916782 1.025744365312066 0  9.375 1.0966796875 0  -6.875 1.0966796875 0  -9.375 1.0966796875 0  6.684990875912408 1.03136405109489 0  -8.322099415573495 1.036062682633283 0  8.125 1.09765625 0  19.11075969939671 0.8508947319664032 0  -19.11075969939671 0.8508947319664032 0  -7.53125 0 0  8.71875 0 0  7.423362102206937 0.6655467048188293 0  9.90625 0 0  -6.34375 0 0  -10.07209987056368 0.6864155791813131 0  -5.15625 0 0  4.932893941568688 0.70313517104756 0  11.09375 0 0  -3.96875 0 0  12.28125 0 0  -12.56167362378033 0.7158719711052053 0  -15.12789358749343 1.239622257084254 0  19.375 2 0  -19.375 2 0  -7.586458743762512 0.7777256637040587 0  -8.876841588719831 0.5749490497356908 0  -2.78125 0 0  13.46875 0 0  2.486351124110562 0.6882204272146759 0  -2.484375 0.6875496078884429 0  13.765625 0.6685592193186988 0  6.127605163798639 0.5971727330055587 0  0.625 2 0  -0.625 2 0  -1.146535794159178 1.28513409566998 0  1.146535794159178 1.285134095669981 0  14.65625 0 0  14.953125 0.6512707752786624 0  -14.87682753143027 0.5890664696931456 0  12.578125 0.6384885491877257 0  -3.671875 0.6384885491877257 0  -15.625 2 0  -11.36675239212577 0.6158089665857418 0  15.00271470412651 1.324726469417674 0  17.53235848397354 0.7266244978817956 0  11.390625 0.6116981677410314 0  -4.859375 0.6116981677410314 0  15.84375 0 0  16.140625 0.6148897058823529 0  7.497593266890831 1.330710907262048 0  13.76254792112057 1.334335181755445 0  -10.20969602084016 1.352738855957021 0  17.03125 0 0  3.639986821556412 0.6311208834101457 0  -2.422032960990368 1.344610008595471 0  -1.875 2 0  2.42168763602468 1.344854035092462 0  1.875 2 0  -6.046875 0.5879464285714285 0  10.203125 0.5879464285714285 0  4.785027294216357 1.360955117010924 0  -16.43327865604348 1.32661481258014 0  -16.44139997701004 0.663326532427168 0  -12.71719161438206 1.366886164755866 0  9.015625 0.567039754702805 0  -13.85227446991684 0.6433291643838606 0  17.68435132148515 1.367585767263021 0  -8.125 2 0  -7.779164034427432 1.405551895778211 0  6.875 2 0  -16.875 2 0  16.25211206745888 1.264109755085799 0  -3.748868614850469 1.292331074664245 0  12.50113138514953 1.292331074664245 0  -4.999425840599162 1.238293400364507 0  11.25057415940084 1.238293400364507 0  10.00021284174179 1.186027320246887 0  -6.249787158258211 1.186027320246887 0  8.750028772491092 1.133996757348608 0  8.125 2 0  -9.375 2 0  -6.875 2 0  9.375 2 0  10.625 2 0  5.625 2 0  -5.625 2 0  -11.875 2 0  11.875 2 0  -4.375 2 0  3.125 2 0  13.125 2 0  -14.375 2 0  14.375 2 0  15.625 2 0  -18.125 2 0  16.875 2 0  -3.125 2 0  -10.625 2 0  4.375 2 0  -13.125 2 0  18.125 2 0  -17.62042339570457 1.322431301452557 0  -17.64048254773117 0.661277151197267 0  -1.59375 0 0  1.59375 0 0  -19.40625 0 0  19.40625 0 0  20 0.5 0  19.0625 1.466926268772181 0  -18.7305243036722 1.362703047674974 0  -5.451064633443578 0.5209722999527524 0  10.79893536655642 0.5209722999527524 0  9.610417111950763 0.5183010867631196 0  -13.46875 0 0  3.96875 0 0  -11.09375 0 0  6.34375 0 0  2.78125 0 0  -8.71875 0 0  -12.28125 0 0  5.15625 0 0  -9.90625 0 0  7.53125 0 0  -15.84375 0 0  -17.03125 0 0  -18.21875 0 0  18.21875 0 0  -14.65625 0 0  20 1.5 0  -19.48071156660626 1.370757229128913 0  -20 0.5 0  -4.24552725411087 0.5169543671041
[...]
<PointData  Scalars="f_10280"> 
<DataArray  type="Float64"  Name="f_10280"  format="ascii">-1.2816942530659158e-06  -1.6283849413426876e-06  -7.0516307152114276e-07  -8.4735660411463940e-07  -8.9879838606086403e-07  -1.0294074564797567e-06  -1.1741533127401579e-06  -1.4642989988421814e-06  -1.6813261171426246e-06  -2.2967106726782016e-06  -1.3690386939091995e-06  -2.6675444446305603e-06  -3.1104543613852027e-06  -4.0889522466986734e-06  -4.4984038571654305e-06  -5.9741551029938969e-06  -6.5416669687618714e-06  -7.3023766350394504e-06  -9.4619133199442127e-06  -1.0087342206700255e-05  -8.4436394969398272e-06  -1.0893113786195739e-05  -1.2596484915340920e-05  -1.4130324895318762e-05  -1.0654244770029576e-05  -1.2619443962587122e-05  -1.6499351630415414e-05  -1.7306589837904020e-05  -1.7793304424429696e-05  -1.9560452652245604e-05  -2.0503430179041040e-05  -2.0397074229943838e-05  -2.3746089974131474e-05  -2.4089010297115878e-05  -2.4176357700581517e-05  -2.3567405098562757e-05  -2.3033855987001578e-05  -2.3770220182423730e-05  -2.5986089260385997e-05  -2.6543198727400431e-05  -2.4111561667611506e-05  -2.6056519860333678e-05  -2.6086688488266070e-05  -2.5558395158835780e-05  -2.4361162480614903e-05  -2.4395836952241568e-05  -1.9380707774780137e-05  -2.6524859942461351e-05  -2.5851023726967870e-05  -2.4024963673667502e-05  -2.2539310034705444e-05  -2.0855295513423335e-05  -2.2102017298205358e-05  -2.0883692408359723e-05  -1.8771337497739896e-05  -1.6621622796919981e-05  -1.4537987058767264e-05  -1.3531450612965490e-05  -1.2642517019648718e-05  -1.1054673313376650e-05  -9.4159215917269152e-06  -8.8496720675763218e-06  -7.0957105618168051e-06  -4.8681849571852239e-06  -3.6107578338786752e-06  -1.7332399602438893e-06  1.0099585132322286e-07  1.7448611606611848e-06  3.2583286546279006e-06  5.3983107392084071e-06  7.2134287538132853e-06  8.1809292306102672e-06  9.3114611131783051e-06  1.1470202361625222e-05  1.2717327571052542e-05  1.4504462405963246e-05  1.6260531921545093e-05  1.8310432399910456e-05  1.4433331031589764e-05  1.9410009927529460e-05  2.0396371869632685e-05  2.3282927745993674e-05  2.4093627269501601e-05  2.2677140764668002e-05  2.4083516006225019e-05  2.4880393711888475e-05  2.4382256345460736e-05  2.4365556190367374e-05  2.3177027309369723e-05  2.3830922078009962e-05  2.4709213869580920e-05  2.5053037643945783e-05  2.4631750812991442e-05  2.5668926006590359e-05  2.6269445144986463e-05  2.6057604343933368e-05  2.4907563000093323e-05  2.3943942118879042e-05  2.3694516339010943e-05  2.2340837350559543e-05  2.1114674776736553e-05  1.9486763856907762e-05  2.1255219290171676e-05  2.0692493979434148e-05  1.7621096433021930e-05  1.7807426792215604e-05  1.7652628436959585e-05  1.7641710621597126e-05  1.6270619476826466e-05  1.3760230527606180e-05  1.3999762603237316e-05  1.0218580740311932e-05  7.1090947571438107e-06  7.6739044667402062e-06  6.7047782565169235e-06  5.3451030174432601e-06  5.6406688175391050e-06  4.8806009394905825e-06  4.5845258907770473e-06  4.1878460590393458e-06  3.1857384355776464e-06  2.6603700533204542e-06  2.4737081294585534e-06  2.1750069384270620e-06  1.6388069236461823e-06  1.4018170134421788e-06  1.1625310922294206e-06  9.9884446062955363e-07  8.9796345398835998e-07  8.4626390325343817e-07  7.0519253850415896e-07  4.9285446524947224e-09  -3.9746467946727239e-07  -1.5495773799323017e-07  7.5163118010800508e-09  9.5483813391995658e-08  4.0057629692087377e-10  -1.2014204390842128e-07  -4.6147211264504293e-10  1.4006094573897489e-09  -5.0526493214293843e-08  -1.1271019596625610e-09  -1.0876779352101558e-07  8.5779838447612959e-08  2.5246222544411507e-09  -2.6414063425796095e-08  3.5628936218174770e-09  -1.2175036778631192e-08  -4.4392542272994342e-11  1.8191940303885017e-08  8.8275797580066109e-09  6.1540458620349938e-08  1.5537419278237268e-07  1.5003266015035127e-09  2.1645129535597748e-09  5.7585227142163487e-08  7.8089294175420745e-10  -1.3671336516375234e-07  6.5547277613575925e-09  2.1074673748635065e-09  -2.1923736619809608e-09  5.2442394277148857e-08  1.4610862800572544e-07  3.4967638385612591e-09  1.8131045594494862e-08  9.3509455550815261e-10  2.2659625409120687e-10  1.2252070493707157e-07  5.3944077135383530e-08  -2.0127913205391764e-10  -2.7958336663468949e-08  -1.5791187268936164e-10  6.0503796243174364e-09  1.1137190396706658e-08  4.1864014720827589e-10  2.8254908121899152e-10  -8.7435821389494312e-08  8.2934646980928410e-12  -2.5048104602717314e-10  -3.2887163414959850e-08  9.3005166271964904e-10  5.0283508880000817e-08  -1.3638365470424434e-11  -1.3020616806430401e-07  -3.9600816205077350e-08  -3.7819660368380956e-08  2.3175914149318873e-09  -1.8830995822985447e-09  -1.2589784790949295e-07  1.2003208073358654e-07  -2.3627570845657375e-07  3.1015806823723115e-09  7.2023864433721533e-08  -7.5704836252802769e-08  -7.9011721551087442e-07  1.4178408982979173e-09  3.8737488496541581e-09  2.0398524509378227e-09  6.5285553790673242e-09  -1.7816923944902817e-09  -4.3156243994101042e-09  -3.0953544426710861e-09  -9.1743833263827092e-11  -6.6836360777179491e-09  -3.9312368702986875e-08  2.5040191622196865e-08  1.1723136884217515e-08  9.6315589688003804e-10  -4.4975486552923314e-09  -7.3573535003442679e-09  8.7708847961171473e-09  6.4190970817598500e-09  -1.9995498082277217e-09  2.6787028215746475e-09  7.5896823164352616e-09  -1.9411919548449244e-09  -1.4870099963597092e-09  3.9449299087658678e-09  -3.8736786310576418e-10  2.4111344311964247e-09  3.0474645416472914e-09  -1.7213452260723782e-09  4.0233449372128190e-09  -9.9059185088034533e-09  1.0382371351396780e-09  -3.8011144434050382e-08  2.1759556165006450e-09  7.2062400953604827e-10  -6.2688658191899632e-10  2.6695408463807040e-09  -1.3710903012288843e-09  -1.2691128662647155e-09  4.0188467429489574e-10  -6.9090508605945406e-11  6.9009761414047740e-10  2.7945801657790332e-09  2.3125596508106559e-10  9.5339764316091569e-10  -4.9817058835722006e-09  -5.1272304484594327e-08  1.1118884232643245e-08  -1.5624660977482598e-09  -4.7757839803940009e-11  -2.3436069321217225e-08  -1.0706953451448555e-09  3.8161896348453573e-08  -1.9781667551450336e-08  4.9129654845076277e-10  -7.5124166555227319e-10  -2.3034392088701128e-07  2.2233708897904247e-07  2.8075870040562304e-07  -2.7012800218080099e-07  4.7320857927260482e-10  -3.3420669170077579e-10  8.5163903527215867e-10  7.6259283984137507e-10  -2.5555505669465903e-09  3.0051652708372309e-08  4.9263325923146807e-10  -1.7032768231457483e-09  2.3502565281567948e-09  4.4200012108237694e-10  1.4328944579275471e-10  2.2468083047240735e-09  2.3786453601078820e-09  -3.0877240632499348e-09  -2.7866112479034734e-08  1.7616560960201506e-08  6.2946879948035349e-10  1.3813911936997002e-09  5.0002734697672306e-09  6.9091203643688648e-08  -1.6239555995586266e-08  -1.7724723519461059e-07  7.2565841751406511e-11  1.5028537183262958e-09  8.5446310340643692e-09  1.7745642791911439e-09  -7.2828454678377722e-10  -1.8368794336101110e-08  1.0969741555691226e-09  -7.4918973493940078e-10  -5.9593139400904728e-09  -3.9466238301743383e-09  -2.5348104853594961e-08  -7.0151306486136788e-08  6.4599512418602266e-08  1.8159565418802671e-08  -1.6201237039219416e-08  -2.0877005386774432e-08  9.9752395013624461e-09  -1.2394031152127175e-08  2.8244957187129932e-08  1.0434225981890821e-08  -2.3671961071608151e-08  1.8864015421256111e-08  9.5920483296927737e-08  -1.0407986969479203e-08  -3.9208606636348443e-09  8.6585607318177659e-09  9.6571451506846562e-08  -2.0305810472796558e-08  9.1111322263211337e-08  3.4032248558598534e-09  2.7896692306310598e-09  5.3266493177060039e-08  -4.1143542298653911e-08  9.4095559219705960e-08  5.2083980073182117e-08  6.2094791203586702e-09  8.7019472074866951e-08  -2.4394398269997100e-08  -2.3046205896998815e-08  -8.2657611595553474e-08  -8.7602619463249824e-08  -2.3146561310880121e-08  7.0072552793595052e-08  2.5469265663516573e-09  -4.8949000722673480e-10  -3.0419938380098127e-07  2.0877943549724234e-07  4.9543607524335749e-08  1.1743550306340838e-09  1.0355596450211720e-08  3.0143086894468050e-09  -3.8612379733527798e-09  1.6733857290787328e-12  1.1772623634664339e-10  4.2143604611425228e-09  7.1674157983657895e-10  4.7882977258337581e-09  1.1964085758305073e-09  3.9606012148597744e-10  3.2522078374573491e-08  5.8804247261630917e-09  -1.9502954476859473e-09  1.1946276213119330e-09  -3.1489935509798039e-09  -5.7254231707977933e-10  1.4127404254198890e-09  -5.9869037051647247e-10  -2.2002157793373840e-09  1.2355325510146511e-09  5.6938640156614595e-10  -5.4045748670274382e-08  1.6083461477722494e-07  -1.1755793239886777e-06  -2.8636437335135695e-10  3.8007226033235517e-10  -1.0663170815741172e-09  -3.0776583284642318e-09  -4.2516464070546195e-08  1.1150374650502956e-09  9.9697424876069467e-10  -1.3890910060936342e-10  -1.0157604075086503e-08  8.3620780656505003e-09  -8.6911818218127229e-08  6.6523304669032478e-08  -2.1428197039638363e-10  1.1189020825158732e-09  -2.2842152069867681e-08  1.1588249516257848e-10  -2.3880248456425400e-08  -2.8360651185627750e-07  2.4407631479186608e-07  -1.4792896909539835e-08  -2.2076394764042887e-09  -1.0595856091195309e-08  7.9017254955440396e-10  -1.2799494809705098e-08  -2.9018087974435486e-09  4.5000969627451908e-10  -1.0051836324342635e-08  -3.6443846434997075e-09  -1.8771367503967317e-08  -1.1902461605073018e-09  9.3687714485665288e-10  4.3612292705732545e-09  2.8596658273373132e-09  5.8864022203316467e-09  1.3113428365463013e-09  9.8686385479721670e-09  -6.6829217442922801e-09  -2.9279850018105912e-08  1.1182145530002713e-08  -1.7108688318872720e-09  9.4861386953364815e-10  1.9101930523096465e-08  2.3266073893521491e-09  9.9866046078631789e-09  1.3103697377434570e-08  -2.9064672206696484e-08  -3.4669216634800134e-08  -1.2004664730862025e-09  -2.3516289899435221e-09  6.5563474432435987e-09  -1.7389110240746904e-08  -1.4811705162695947e-08  -8.9058155041535501e-10  3.7419900337109210e-09  9.3815142497826868e-08  -1.4581718287416012e-07  6.3491151611464509e-08  4.9470055867439763e-09  -4.1038573674360491e-08  -4.8790709669112121e-07  1.4399680663129928e-09  -3.8668015285283348e-09  -5.8801903539639668e-10  -4.3902497096354102e-09  6.0341810070186677e-10  3.2087757083807136e-09  4.6494981014148436e-09  3.2644522754818176e-08  4.3402018083646010e-09  2.9739447925661266e-09  7.3864296221231336e-10  3.4477352862092970e-09  2.7781000358129304e-09  -1.8509471783104861e-08  1.0447823798036938e-10  2.8202206487170311e-09  8.5159454162382886e-10  3.4174206323037275e-08  6.7160578140081182e-09  -2.7407465570187972e-08  -2.3548154696601040e-08  1.8157977279962497e-08  1.7272915165190044e-08  3.6227731950170728e-09  -5.0677072798715835e-09  -9.6192016746146175e-09  6.3230665501046610e-09  3.0565520694013510e-08  -1.9553697241824969e-08  1.6173332915869661e-10  3.0251077384464836e-09  2.4154962195367191e-08  -9.3153550941994026e-09  5.3913049489258130e-09  4.3732073217314724e-08  -4.4943179785291857e-08  2.6970681454886388e-07  -2.8713699740852026e-07  1.3580062267292587e-09  -3.9859967777260261e-09  6.9152578400788250e-10  -9.1060230699126582e-09  -2.1911200147144291e-09  7.0304677003150500e-09  1.9820943946745735e-09  -1.6148160308310476e-09  1.6501150835076827e-07  4.3630285302390696e-07  -4.1796003963545486e-07  -2.2273415764431758e-09  4.5058315762024747e-10  1.3917231245527705e-09  4.9377935461762909e-10  -9.9636388829459182e-08  1.7667726984095177e-09  2.2287304646815424e-09  3.4679097127112669e-09  -3.9539535452319587e-08  4.9382955197721396e-10  8.2779058990388322e-09  -4.0509825208562432e-08  2.5932051754643503e-08  -7.1470343282129746e-11  2.1790202723667188e-08  3.5401350515481560e-09  1.8448998266509432e-10  8.4401616573022370e-10  3.9301764290852838e-08  -4.7822913645599302e-09  -3.0667476058480678e-07  3.9836803672360478e-09  1.0633366167794716e-09  2.1613966398464868e-09  -4.5913144203221940e-10  7.1076918314563091e-08  2.4114156038048312e-09  1.0020556015623742e-09  -5.4746727548640104e-08  -2.3694666185794739e-10  2.1593329904250948e-09  -6.2401243315961784e-10  -1.9480372523488635e-09  -3.4184475233894384e-09  5.4004747796044702e-08  2.4708223507336098e-08  -2.2906398410628084e-07  -8.2485251122950496e-08  2.6336978928398405e-09  -8.1381238110990480e-10  1.3463896962020767e-08  6.0767806309299920e-09  -8.2737151423402389e-08  -1.7391481971208796e-07  -8.7969928018991154e-11  1.3043168216140269e-08  -2.4245235946845822e-09  5.0525752271308775e-08  2.7378871705945894e-08  -6.0708372623295932e-09  1.0339339984401818e-09  -2.4663794848705105e-08  -5.4865815413920941e-08  1.3020404239019377e-08  2.3019249004466969e-07  1.7883607453494796e-08  -1.3250075016297095e-08  -3.2845424811973828e-10  -3.2678560286824477e-08  -6.1200423531624537e-08  7.2468555723283929e-10  -6.4832166769020287e-08  1.2885927436772794e-07  1.3591610527725583e-09  -1.1751231583857256e-07  1.5746478107767688e-09  1.6412088673761749e-11  5.4224532026864376e-10  -3.2222317922848948e-08  -8.5641742267659907e-08  -2.6307800351352301e-09  6.2584083134730491e-09  -9.2540890832042136e-10  -8.8789157859547008e-09  2.9998410294594653e-09  -3.7859932387328653e-08  6.0061645174594547e-09  -5.5554275661664772e-07  4.3166831020776541e-09  4.4347704961042887e-08  2.0042868497282821e-09  -3.3196666744258233e-10  4.0430466428865801e-10  -4.1571545923460449e-09  3.6741743849856574e-09  3.2878958096757563e-09  6.2559362880743959e-08  6.0449084518367568e-08  1.9965641927226993e-10  6.0397536510614800e-10  -5.7058057280283809e-10  3.0068159735923502e-08  -2.7596105628919162e-09  4.6559592729815612e-10  -8.2904720283312297e-11  -8.4541139644635738e-09  -5.7716001712428975e-09  6.9575821776457750e-10  1.5297318186887126e-09  -6.0220382737831459e-10  -2.1412598443255704e-09  2.8476301814602444e-08  3.5962812354757259e-10  1.9252791485696545e-09  -4.0649220628608093e-09  1.2775349410875470e-09  5.0695560286468757e-10  1.3339387929186417e-09  -5.2368072577465652e-10  -8.7478830379969204e-08  -1.4994730386235149e-07  5.5071736463944139e-08  -3.9023171941611283e-09  -1.0259612665509169e-09  -3.9309979466228867e-08  4.1660278186466152e-09  -5.6768718650170519e-08  5.3354053046856440e-10  -1.8513514909849751e-09  -5.0921437125588417e-08  5.5446169101156906e-09  6.7563127107827193e-09  8.7830052050687281e-10  -3.3952042866874881e-09  -2.1554467756275218e-09  -7.4502789608705969e-11  -4.6093857013956212e-10  -1.9231643796614093e-10  1.0283666754596558e-08  4.5256668415636235e-08  2.5495898361095022e-08  -6.6278331312781249e-10  -2.2766494814399082e-09  -1.0847547558444609e-10  5.9103690165058608e-10  -5.8194295369732446e-11  -1.3807720631342357e-10  -6.4051602370733937e-10  -8.9574622874640190e-11  -4.0942065497369058e-10  -5.6493657988252958e-11  -1.8211454884085995e-09  -4.3036518143402031e-09  2.9018526246327375e-10  -2.5203357846505856e-10  -2.5044229109676366e-09  4.2828467817642106e-08  2.7213731922438370e-08  1.0517816084949534e-09  -3.8519373346270975e-09  -1.2123441748225684e-09  -2.1049305847267436e-08  5.1968009185662777e-09  6.1723797894902281e-10  -1.0037256304623283e-10  5.0215261750910560e-08  -1.3422238057911555e-07  4.5128975237914830e-09  -1.3454222622402301e-10  5.4939253621325964e-10  -4.9299019761456715e-09  -2.2574603433146234e-08  -2.1429683327446811e-09  -1.9820750566715693e-07  2.1434633807273285e-09  -1.4122237903164638e-08  -2.2467508512045910e-10  2.2290163597831778e-10  -4.7132553924109586e-08  -1.0793076352228327e-09  3.2376159248158586e-09  -1.5948992960880963e-09  -3.3206436265807879e-08  -1.5529540955177462e-08  -1.3755856255353420e-09  -4.8065704376506129e-09  -1.5319165598061101e-09  -7.3385603637914501e-09  -8.8820800079177445e-10  -2.8736707756540734e-11  -2.2011255164143259e-10  -3.2279576748186652e-10  2.2847863232504890e-10  -6.7378015614752581e-11  5.5147995998344299e-08  1.1411256504642564e-08  2.5866266571944815e-09  1.2611367481367674e-09  -1.9011739626989862e-10  2.3931824142273021e-10  5.3416458805044684e-08  2.9598071238248748e-09  6.7792501030183392e-10  -7.5079778163990555e-09  -1.3200344672782848e-08  3.5905157706374259e-09  6.2451794300445754e-09  1.1760696564854365e-09  1.1571642031425680e-09  2.3399198352474133e-08  2.0434928970874691e-08  6.6613186315182993e-10  -4.8477538924094697e-07  4.7392634460210488e-07  -2.6442089088358028e-08  7.3315167026834141e-09  -3.2616814843692078e-08  4.8385988592646246e-09  5.9020774956267883e-09  -2.1052599316811650e-10  -9.1764374476301036e-10  1.8532592677629076e-10  -4.8975981114828338e-08  -8.3740761507120012e-07  4.3690474376148183e-08  -9.5873254904796355e-09  -3.8698632773633198e-08  -5.7106686470177992e-07  -5.7777602178515843e-10  1.8186172474975187e-07  1.3975765953293437e-07  5.8411892940954382e-08  1.3612093645489277e-09  -1.6486877588290641e-08  3.1531298893869665e-07  -2.4983286181927346e-07  1.6409811512052525e-08  5.1579173164507801e-08  4.0097808477346421e-08  3.3075000473903154e-10  -2.1387843968895819e-10  1.1934178772275641e-08  -1.9168986019766290e-09  -1.9033232705742291e-07  1.9535744130516459e-07  -2.5628939338728460e-08  3.1381630969989894e-10  -1.9842514022384647e-08  -1.2430168437622223e-08  -4.0590249031873853e-10  2.1680039957603193e-09  3.4017454486727899e-09  7.9483200160199628e-09  -1.7863075530729325e-08  -6.7851011323934144e-09  -6.1430541284584623e-09  1.7815448571323397e-09  -3.9281346123093859e-09  -2.3802313926323034e-08  -8.5095003910121860e-08  -9.6834177106957629e-08  -2.4316614675866816e-07  2.1746792252617034e-07  1.3630465740043939e-08  -8.8252638760476133e-08  -1.0903488937647204e-07  9.0406531488067256e-08  1.0460647720088915e-07  3.6711303370272609e-08  3.5117438039568797e-08  7.1412759044509760e-08  -5.4541318428925163e-08  -8.1444745408755694e-08  9.3802966011653789e-08  8.6239275399155952e-08  2.4113720124236182e-08  5.6078104294860089e-09  -8.0634546677415011e-08  1.4840289794998097e-07  4.3558809203250527e-08  9.2263768382676982e-08  6.8401122670610557e-09  5.2190040111583322e-09  -9.9310506270879393e-08  2.5784456248266219e-09  -5.3325786392570848e-08  7.1224909320778269e-09  1.8351824170145534e-08  4.5812275336065422e-08  4.6772457877754561e-08  1.9304874250341632e-08  -2.5963938732652182e-08  4.7304185310704272e-08  5.0353050540672979e-08  2.1025924689095715e-08  1.2045177629793915e-09  -7.4573048907066160e-08  5.9723488897449971e-08  2.0739532615401854e-08  5.5093758331229937e-08  -8.9626390939437767e-08  4.6873023681892985e-08  1.4170390937651879e-07  7.3236963534184935e-08  6.0693222119815468e-08  1.3028705819546832e-07  -1.5388965504050164e-08  1.6341451985263419e-08  -2.5594146881091498e-08  1.3693729745314594e-09  8.3974609859038283e-08  1.1700627573929893e-07  1.6020814798023143e-09  -1.8292479850489728e-08  -7.3620863829909376e-10  -2.7004239629684823e-09  -1.4039519194187843e-08  -2.1433985156257482e-08  5.9460811520496148e-09  -8.6589436972918308e-09  1.0791748322623357e-08  1.1519428160207336e-08  -1.1199381416076660e-09  1.0034117786656822e-09  1.2868367127588114e-10  3.8851258301473369e-07  9.9100343219949886e-10  2.6682925032068605e-08  -3.3547213974094340e-07  -6.4821793900489461e-08  -4.1224689400818300e-09  -4.0732570995111522e-07  1.4349072763596903e-10  -2.1862952539038627e-09  -8.2976636088498848e-10  1.0933056645924618e-09  -8.4252042444769853e-08  3.7994780725183327e-08  -4.5210384077285406e-09  -1.7881945152191525e-08  -2.4171377454511363e-10  6.4798451266875624e-09  4.3589081848662475e-10  1.5656320512602450e-09  -7.7545476652906763e-08  -1.4866442911412218e-10  -4.9735957078806756e-10  3.5290224179551092e-08  -1.8357126350825449e-09  5.6107545160440579e-08  7.1164400226844395e-10  -8.3183124782329644e-10  -4.4184598382328086e-09  1.2510347757829040e-09  6.3790913177972762e-09  -2.5225778014924281e-09  4.3385732589040174e-08  -9.0647258104781149e-10  -2.9823074899451281e-09  -1.6662635962883957e-08  1.2623616053399384e-10  8.3429283048198130e-10  -2.1186562026214952e-09  -2.3952866264846696e-10  -9.7444035774281493e-11  3.5251783593714165e-09  2.45472263272167