<?xml version="1.0"?>
<VTKFile type="UnstructuredGrid"  version="0.1"  >
<UnstructuredGrid>
<Piece  NumberOfPoints="1349" NumberOfCells="2290">
<Points>
<DataArray  type="Float64"  NumberOfComponents="3"  format="ascii">-20 2 0  -20 0 0  -1 0 0  -0.9996988186962042 0.02454122852291233 0  -0.9987954562051724 0.04906767432741797 0  -0.9972904566786902 0.07356456359966773 0  -0.9951847266721968 0.09801714032956083 0  -0.99247953459871 0.1224106751992163 0  -0.989176509964781 0.1467304744553618 0  -0.9852776423889412 0.1709618887603012 0  -0.9807852804032304 0.1950903220161286 0  -0.9757021300385285 0.21910124015687 0  -0.970031253194544 0.2429801799032641 0  -0.9637760657954398 0.2667127574748985 0  -0.9569403357322088 0.2902846772544624 0  -0.9495281805930367 0.3136817403988914 0  -0.9415440651830207 0.3368898533922203 0  -0.9329927988347388 0.3598950365349883 0  -0.9238795325112867 0.3826834323650899 0  -0.9142097557035307 0.4052413140049899 0  -0.9039892931234433 0.427555093430282 0  -0.8932243011955152 0.4496113296546069 0  -0.8819212643483549 0.4713967368259979 0  -0.8700869911087113 0.4928981922297841 0  -0.857728610000272 0.5141027441932218 0  -0.8448535652497071 0.5349976198870972 0  -0.8314696123025453 0.5555702330196022 0  -0.8175848131515836 0.5758081914178454 0  -0.8032075314806448 0.5956993044924335 0  -0.7883464276266062 0.6152315905806269 0  -0.773010453362737 0.6343932841636455 0  -0.7572088465064846 0.6531728429537766 0  -0.7409511253549589 0.6715589548470186 0  -0.7242470829514668 0.6895405447370671 0  -0.7071067811865475 0.7071067811865476 0  -0.6895405447370669 0.7242470829514669 0  -0.6715589548470184 0.740951125354959 0  -0.6531728429537765 0.7572088465064847 0  -0.6343932841636454 0.7730104533627371 0  -0.6152315905806267 0.7883464276266063 0  -0.5956993044924334 0.8032075314806449 0  -0.5758081914178453 0.8175848131515837 0  -0.555570233019602 0.8314696123025455 0  -0.534997619887097 0.8448535652497072 0  -0.5141027441932217 0.8577286100002721 0  -0.492898192229784 0.8700869911087115 0  -0.4713967368259977 0.881921264348355 0  -0.4496113296546067 0.8932243011955152 0  -0.4275550934302819 0.9039892931234434 0  -0.4052413140049897 0.9142097557035307 0  -0.3826834323650897 0.9238795325112867 0  -0.3598950365349882 0.9329927988347388 0  -0.3368898533922199 0.9415440651830208 0  -0.3136817403988914 0.9495281805930367 0  -0.2902846772544622 0.9569403357322089 0  -0.2667127574748983 0.9637760657954398 0  -0.2429801799032639 0.970031253194544 0  -0.2191012401568697 0.9757021300385286 0  -0.1950903220161282 0.9807852804032304 0  -0.1709618887603012 0.9852776423889412 0  -0.1467304744553616 0.989176509964781 0  -0.1224106751992162 0.99247953459871 0  -0.09801714032956065 0.9951847266721969 0  -0.07356456359966733 0.9972904566786902 0  -0.04906767432741801 0.9987954562051724 0  -0.02454122852291214 0.9996988186962042 0  6.123233995736766e-17 1 0  0.02454122852291226 0.9996988186962042 0  0.04906767432741813 0.9987954562051724 0  0.07356456359966745 0.9972904566786902 0  0.09801714032956077 0.9951847266721968 0  0.1224106751992163 0.99247953459871 0  0.1467304744553617 0.989176509964781 0  0.1709618887603014 0.9852776423889412 0  0.1950903220161283 0.9807852804032304 0  0.2191012401568698 0.9757021300385286 0  0.242980179903264 0.970031253194544 0  0.2667127574748984 0.9637760657954398 0  0.2902846772544623 0.9569403357322089 0  0.3136817403988916 0.9495281805930367 0  0.3368898533922201 0.9415440651830208 0  0.3598950365349883 0.9329927988347388 0  0.3826834323650898 0.9238795325112867 0  0.4052413140049899 0.9142097557035307 0  0.4275550934302822 0.9039892931234433 0  0.4496113296546066 0.8932243011955153 0  0.4713967368259978 0.8819212643483549 0  0.4928981922297841 0.8700869911087113 0  0.5141027441932217 0.8577286100002721 0  0.5349976198870973 0.844853565249707 0  0.5555702330196023 0.8314696123025452 0  0.5758081914178453 0.8175848131515837 0  0.5956993044924335 0.8032075314806448 0  0.6152315905806268 0.7883464276266062 0  0.6343932841636455 0.773010453362737 0  0.6531728429537768 0.7572088465064845 0  0.6715589548470183 0.7409511253549591 0  0.6895405447370669 0.7242470829514669 0  0.7071067811865476 0.7071067811865475 0  0.724247082951467 0.6895405447370668 0  0.7409511253549591 0.6715589548470183 0  0.7572088465064846 0.6531728429537768 0  0.773010453362737 0.6343932841636455 0  0.7883464276266063 0.6152315905806268 0  0.8032075314806449 0.5956993044924334 0  0.8175848131515837 0.5758081914178453 0  0.8314696123025452 0.5555702330196022 0  0.8448535652497071 0.5349976198870972 0  0.8577286100002721 0.5141027441932217 0  0.8700869911087115 0.492898192229784 0  0.881921264348355 0.4713967368259976 0  0.8932243011955153 0.4496113296546065 0  0.9039892931234433 0.4275550934302821 0  0.9142097557035307 0.4052413140049899 0  0.9238795325112867 0.3826834323650898 0  0.932992798834739 0.3598950365349881 0  0.9415440651830208 0.3368898533922201 0  0.9495281805930367 0.3136817403988915 0  0.9569403357322088 0.2902846772544623 0  0.9637760657954398 0.2667127574748984 0  0.970031253194544 0.2429801799032639 0  0.9757021300385286 0.2191012401568698 0  0.9807852804032304 0.1950903220161282 0  0.9852776423889412 0.1709618887603012 0  0.989176509964781 0.1467304744553617 0  0.99247953459871 0.1224106751992162 0  0.9951847266721969 0.0980171403295606 0  0.9972904566786902 0.07356456359966743 0  0.9987954562051724 0.04906767432741801 0  0.9996988186962042 0.02454122852291229 0  1 0 0  20 0 0  20 2 0  0 2 0  -10 2 0  10 2 0  -10.5 0 0  -5 2 0  10.5 0 0  5 2 0  -15 2 0  -5.75 0 0  -2.5 2 0  15 2 0  5.75 0 0  2.5 2 0  -15.25 0 0  -3.375 0 0  15.25 0 0  3.375 0 0  -17.625 0 0  -17.5 2 0  17.5 2 0  17.625 0 0  8.125 0 0  7.5 2 0  12.875 0 0  12.5 2 0  -12.5 2 0  -12.875 0 0  -8.125 0 0  -7.5 2 0  -18.75 2 0  -18.8125 0 0  18.75 2 0  18.8125 0 0  16.4375 0 0  16.25 2 0  -16.25 2 0  -16.4375 0 0  13.75 2 0  -14.0625 0 0  -13.75 2 0  -11.6875 0 0  11.6875 0 0  -9.3125 0 0  8.75 2 0  -8.75 2 0  6.9375 0 0  6.25 2 0  -6.9375 0 0  -6.25 2 0  9.3125 0 0  11.25 2 0  -11.25 2 0  3.75 2 0  4.5625 0 0  -4.5625 0 0  -3.75 2 0  -1.25 2 0  1.25 2 0  14.0625 0 0  2.1875 0 0  -2.1875 0 0  -20 1 0  20 1 0  18.21875 0.982421875 0  -18.21875 0.982421875 0  16.875 1.0498046875 0  -17.03125 0.966796875 0  -15.84375 0.953125 0  15.625 1.0625 0  14.375 1.0732421875 0  -14.375 1.0732421875 0  1.830289387965117 1.052284088108649 0  -1.830289387965117 1.052284088108649 0  -3.125 1.08203125 0  -13.28477656888586 1.012129001112436 0  13.125 1.08203125 0  3.125 1.08203125 0  -4.375 1.0888671875 0  11.875 1.0888671875 0  -11.875 1.0888671875 0  4.203765290519877 1.0193030867737 0  -5.625 1.09375 0  5.625 1.09375 0  10.625 1.09375 0  -10.80634835916782 1.025744365312066 0  9.375 1.0966796875 0  -6.875 1.0966796875 0  -9.375 1.0966796875 0  6.684990875912408 1.03136405109489 0  -8.322099415573495 1.036062682633283 0  8.125 1.09765625 0  19.11075969939671 0.8508947319664032 0  -19.11075969939671 0.8508947319664032 0  -7.53125 0 0  8.71875 0 0  7.423362102206937 0.6655467048188293 0  9.90625 0 0  -6.34375 0 0  -10.07209987056368 0.6864155791813131 0  -5.15625 0 0  4.932893941568688 0.70313517104756 0  11.09375 0 0  -3.96875 0 0  12.28125 0 0  -12.56167362378033 0.7158719711052053 0  -15.12789358749343 1.239622257084254 0  19.375 2 0  -19.375 2 0  -7.586458743762512 0.7777256637040587 0  -8.876841588719831 0.5749490497356908 0  -2.78125 0 0  13.46875 0 0  2.486351124110562 0.6882204272146759 0  -2.484375 0.6875496078884429 0  13.765625 0.6685592193186988 0  6.127605163798639 0.5971727330055587 0  0.625 2 0  -0.625 2 0  -1.146535794159178 1.28513409566998 0  1.146535794159178 1.285134095669981 0  14.65625 0 0  14.953125 0.6512707752786624 0  -14.87682753143027 0.5890664696931456 0  12.578125 0.6384885491877257 0  -3.671875 0.6384885491877257 0  -15.625 2 0  -11.36675239212577 0.6158089665857418 0  15.00271470412651 1.324726469417674 0  17.53235848397354 0.7266244978817956 0  11.390625 0.6116981677410314 0  -4.859375 0.6116981677410314 0  15.84375 0 0  16.140625 0.6148897058823529 0  7.497593266890831 1.330710907262048 0  13.76254792112057 1.334335181755445 0  -10.20969602084016 1.352738855957021 0  17.03125 0 0  3.639986821556412 0.6311208834101457 0  -2.422032960990368 1.344610008595471 0  -1.875 2 0  2.42168763602468 1.344854035092462 0  1.875 2 0  -6.046875 0.5879464285714285 0  10.203125 0.5879464285714285 0  4.785027294216357 1.360955117010924 0  -16.43327865604348 1.32661481258014 0  -16.44139997701004 0.663326532427168 0  -12.71719161438206 1.366886164755866 0  9.015625 0.567039754702805 0  -13.85227446991684 0.6433291643838606 0  17.68435132148515 1.367585767263021 0  -8.125 2 0  -7.779164034427432 1.405551895778211 0  6.875 2 0  -16.875 2 0  16.25211206745888 1.264109755085799 0  -3.748868614850469 1.292331074664245 0  12.50113138514953 1.292331074664245 0  -4.999425840599162 1.238293400364507 0  11.25057415940084 1.238293400364507 0  10.00021284174179 1.186027320246887 0  -6.249787158258211 1.186027320246887 0  8.750028772491092 1.133996757348608 0  8.125 2 0  -9.375 2 0  -6.875 2 0  9.375 2 0  10.625 2 0  5.625 2 0  -5.625 2 0  -11.875 2 0  11.875 2 0  -4.375 2 0  3.125 2 0  13.125 2 0  -14.375 2 0  14.375 2 0  15.625 2 0  -18.125 2 0  16.875 2 0  -3.125 2 0  -10.625 2 0  4.375 2 0  -13.125 2 0  18.125 2 0  -17.62042339570457 1.322431301452557 0  -17.64048254773117 0.661277151197267 0  -1.59375 0 0  1.59375 0 0  -19.40625 0 0  19.40625 0 0  20 0.5 0  19.0625 1.466926268772181 0  -18.7305243036722 1.362703047674974 0  -5.451064633443578 0.5209722999527524 0  10.79893536655642 0.5209722999527524 0  9.610417111950763 0.5183010867631196 0  -13.46875 0 0  3.96875 0 0  -11.09375 0 0  6.34375 0 0  2.78125 0 0  -8.71875 0 0  -12.28125 0 0  5.15625 0 0  -9.90625 0 0  7.53125 0 0  -15.84375 0 0  -17.03125 0 0  -18.21875 0 0  18.21875 0 0  -14.65625 0 0  20 1.5 0  -19.48071156660626 1.370757229128913 0  -20 0.5 0  -4.24552725411087 0.5169543671041
[...]
<PointData  Scalars="f_53898"> 
<DataArray  type="Float64"  Name="f_53898"  format="ascii">1.0001319834008822e+00  1.0032290260848473e+00  9.9903801524687208e-01  1.0021607803150703e+00  1.0048306171033963e+00  1.0099364308376342e+00  1.0184676139963522e+00  1.0281803254381052e+00  1.0416983827136475e+00  1.0647326423110390e+00  1.0407782701554651e+00  1.0696468769415441e+00  1.0985805061249236e+00  1.1152652575090836e+00  1.1388322742082988e+00  1.1595137825064106e+00  1.1863926530517661e+00  1.2101786552200655e+00  1.2395142481366490e+00  1.2686533719600632e+00  1.3012279145323284e+00  1.3332189672698600e+00  1.3677994199187073e+00  1.3999787135697996e+00  1.4377935259284069e+00  1.4705436023591771e+00  1.5106458313110394e+00  1.5378734178079791e+00  1.5820646745973928e+00  1.6193913851990314e+00  1.6578651197425620e+00  1.6879546789140276e+00  1.7372607328659826e+00  1.7803858987720911e+00  1.7961574296706404e+00  1.8325102333763954e+00  1.8307905531086102e+00  1.8808835857946922e+00  1.9149200814859921e+00  1.9467767574784256e+00  1.9249278023057366e+00  1.9677830527410454e+00  1.9910473922900660e+00  1.9162172692198987e+00  1.8929727923792119e+00  1.5905444675527449e+00  2.1925792371633617e+00  1.9523229114676350e+00  2.0681584307808873e+00  1.9710523520872392e+00  1.9209710053669962e+00  1.8282158473068841e+00  1.8412440927247045e+00  1.8282194061740655e+00  1.7136064961932129e+00  1.7135996922580592e+00  1.5507678042956150e+00  1.5030732848687591e+00  1.4794737741054076e+00  1.4528065901478924e+00  1.3030405357640820e+00  1.3337984679289461e+00  1.2747263375108611e+00  1.1310275532748830e+00  1.1248369608664046e+00  1.0761755905689898e+00  9.4975678330924040e-01  9.5482628283265703e-01  8.1227667846862539e-01  8.2837687300372254e-01  7.9467942168698935e-01  6.9874025233391124e-01  6.2401983330905852e-01  6.2514263022708039e-01  5.9536567532403917e-01  5.6807043105154509e-01  3.5751965057997126e-01  8.3679720171853531e-02  9.7832043177877037e-01  5.4022781430994116e-01  4.6757544637792364e-01  4.8510763862364303e-01  4.9284849585409546e-01  4.7026154643896623e-01  4.8632414258327245e-01  5.0565530309142082e-01  4.8543160402690949e-01  5.2192847819528865e-01  5.0707479810651956e-01  5.1671176754068171e-01  5.4749755802256606e-01  5.6520659289083408e-01  5.7179475014743053e-01  5.9676260001605330e-01  6.2406081957467407e-01  6.4301639243798503e-01  6.5167213232327725e-01  6.6569308361947377e-01  6.8219660604536836e-01  7.0071797258327173e-01  7.0586519452147400e-01  7.2351448260530826e-01  7.4540956755243482e-01  7.6400685716917016e-01  7.8444320194664174e-01  8.0125300852806025e-01  8.0905292045898713e-01  8.2232452795914290e-01  8.3094800572878069e-01  8.4808744445462414e-01  8.6237813463361768e-01  8.7826208269744721e-01  8.9383715929795859e-01  9.0442394226227807e-01  9.3424113734271974e-01  9.1501652832791880e-01  9.0663714820196006e-01  9.3335406568317969e-01  9.4437096871691995e-01  9.5581789576433929e-01  9.5847226407135189e-01  9.6628524381599479e-01  9.7556758195632209e-01  9.8103341569782532e-01  9.8270855297129911e-01  9.8814392493120951e-01  9.9068836813085959e-01  9.9484707567189923e-01  9.9714857675663704e-01  9.9770588642107960e-01  1.0006703412159388e+00  9.9999993984411772e-01  1.0000000487536498e+00  1.0212921559930843e+00  1.0000000001781539e+00  9.9999949319023662e-01  9.9999998940386015e-01  1.0000005048354288e+00  9.9999949129927135e-01  9.9998006978723886e-01  9.9999983264182046e-01  1.0000941722751227e+00  9.9968687369896203e-01  9.9999957816568485e-01  9.9986344578233000e-01  1.0000539121429799e+00  9.9998872867975841e-01  1.0134670637291958e+00  9.9999943688122883e-01  9.8496939956525476e-01  9.9933695221416952e-01  1.0000413567916548e+00  9.9999984515837359e-01  9.9999935529004802e-01  1.0000000314504212e+00  9.9999917671578598e-01  9.9999960909428298e-01  9.9999960392127074e-01  9.9999999924610594e-01  9.9999997647675165e-01  9.9999957597923361e-01  1.0000000131169540e+00  1.0006708948228780e+00  9.9867739286752533e-01  9.9999957402163064e-01  9.9999961183328967e-01  9.9999950735556142e-01  9.9999948528509175e-01  1.0000012425827869e+00  9.9989233352595785e-01  9.9999949107986941e-01  9.9999917008181038e-01  9.9999997793718765e-01  1.0000000036823666e+00  9.9999947743662487e-01  9.9999990487155299e-01  9.9999944333611757e-01  1.0000000007301828e+00  9.9999425356341265e-01  9.9999707011127537e-01  1.0000029900584346e+00  1.0000000506413942e+00  9.9999977478810353e-01  9.9999974199778519e-01  9.9999999987512300e-01  1.0000672424793970e+00  9.9829236704524715e-01  1.0014040443953522e+00  9.9997345424405792e-01  9.9050589708028580e-01  1.0153465226103946e+00  9.9999950469078869e-01  9.1450675529594849e-01  1.0939752444724165e+00  1.0032895785822031e+00  9.9999822987658971e-01  9.9999834085557671e-01  1.0001475106535771e+00  9.9999827623633075e-01  1.0000922669433028e+00  1.0000131171270463e+00  9.9999827419664133e-01  9.9999834641411722e-01  1.0000010145475773e+00  1.0838125540753074e+00  9.8312534557006881e-01  9.9347471133476828e-01  1.0000000685551189e+00  9.9999830580510785e-01  1.0119677947402146e+00  9.9925526822212574e-01  9.9999833619346512e-01  9.9999999831285580e-01  1.0016634427802147e+00  9.9994791158286644e-01  1.0001059157156418e+00  9.9999823289933121e-01  1.0000000014143953e+00  9.9999818389891915e-01  9.9999809728136579e-01  1.0000000307764569e+00  1.0000059788654219e+00  1.0000000835810634e+00  9.9999811463609778e-01  9.9999816083755999e-01  9.9870763418635411e-01  9.9999976824987635e-01  9.9999986497579951e-01  9.9999937032216502e-01  9.9999959559810891e-01  1.0000220566883533e+00  9.9999999721934341e-01  1.0004080307449497e+00  9.9998397431741015e-01  9.9999958649391552e-01  1.0044049745084584e+00  9.9999955245924832e-01  1.0000000115542882e+00  1.0000058520949546e+00  9.9999951046266733e-01  1.0029977312989737e+00  9.9999958181362880e-01  9.9999992676420990e-01  1.0375571677725322e+00  9.9999959836892904e-01  9.9021800725995279e-01  1.0155661867290011e+00  9.9999832290958690e-01  9.9999525681713530e-01  1.0266962892134861e+00  9.9585671475647275e-01  9.3926137387263753e-01  1.3227969627683396e+00  9.9999954767691124e-01  9.9999825651520313e-01  9.9999915287904839e-01  9.9999837883529974e-01  1.0017180890713981e+00  9.9999957394107863e-01  1.0000000013908965e+00  9.9999827525081486e-01  9.9999835350774158e-01  9.9999830879893059e-01  1.0001193577483101e+00  9.9999958714079062e-01  9.9999834442317759e-01  9.9999787913982785e-01  9.9999836164718858e-01  1.0000000087057273e+00  9.9999952365990086e-01  9.9771185124215855e-01  9.6999837863014193e-01  9.9891048945271754e-01  1.0575701251959910e+00  9.9672575480725567e-01  1.0000027104286935e+00  9.9999834113346742e-01  1.0007301537463436e+00  1.0000771464166935e+00  9.9998034851661821e-01  9.9999999585238386e-01  9.9999843702815083e-01  1.0000000210288731e+00  9.9999838453547252e-01  1.0000000165726712e+00  1.0000004364279529e+00  9.9999884411610929e-01  1.0000087901481904e+00  9.9999823582118386e-01  9.9683387615133889e-01  9.9999827642532724e-01  9.9976814696442839e-01  9.9999834683865374e-01  9.9999831808809403e-01  9.9998936372655911e-01  9.9999803686080124e-01  9.9999957073113033e-01  1.0000000005269924e+00  1.0000001051123393e+00  9.9999972357096001e-01  9.9999963276024917e-01  9.9999279921954454e-01  9.9999949540474653e-01  9.9999999933693040e-01  9.9999969565453606e-01  1.0000059599981388e+00  1.0000897632921819e+00  9.9999969417740864e-01  9.9999992289368556e-01  9.9999972920779989e-01  9.9999964416664477e-01  1.0000036624967339e+00  9.9999965202079522e-01  1.0001174042749752e+00  1.0000000000269631e+00  9.9995403447306364e-01  9.9999999690714902e-01  9.9999964400740493e-01  1.0005274867513718e+00  9.9975708355034132e-01  1.1876919192285647e+00  8.5941787457507235e-01  1.0009727179864489e+00  9.9999956854114069e-01  9.9999823449303593e-01  9.9999824824026851e-01  1.0013039210013390e+00  1.0000461595325090e+00  9.9999829641633087e-01  9.9999833668606186e-01  9.9999981811770389e-01  9.9459365942775280e-01  9.9999999915693849e-01  9.9996768337799646e-01  9.6093799331487384e-01  9.9999976548587888e-01  1.0000000037218015e+00  9.9950971314670989e-01  9.9999996565401472e-01  9.9999947402535205e-01  9.9996473996512525e-01  9.9971983940426934e-01  9.9878116618148038e-01  9.9999952016994120e-01  9.9999674168523933e-01  9.9999841972576231e-01  9.9688801136117844e-01  1.0046110336047804e+00  1.0008399120687894e+00  9.9999829824914210e-01  1.0000000051122269e+00  9.9873866305037085e-01  9.9999847735875447e-01  9.9999828113022637e-01  9.9999830466928585e-01  9.9999833026782914e-01  1.0106623845984801e+00  9.8815657098308995e-01  1.1201574098565394e+00  9.1405830288103895e-01  9.9999835935383008e-01  9.9999002486122845e-01  1.0000003107100266e+00  9.9999831534443062e-01  1.0092311356314065e+00  1.5812006619103223e+00  1.1601826073294008e+00  9.9999999600306166e-01  9.9999999067319634e-01  1.0001690483530679e+00  9.9994316818879014e-01  1.0000314302080220e+00  1.0000006831859989e+00  9.9999987558595194e-01  1.0000000221897063e+00  9.9999997077218528e-01  1.0000000707501904e+00  9.9999854274433608e-01  9.9999999339435008e-01  1.0000000445061341e+00  9.9856522741172171e-01  1.0033119173292864e+00  9.9999999851343058e-01  9.9999999957301577e-01  1.0000015350103584e+00  1.0000258458204367e+00  9.9999786408088853e-01  9.9999811522803228e-01  9.9999609092915898e-01  1.0000045181332935e+00  9.9999970922903891e-01  1.0000001792366227e+00  9.9999822175947950e-01  9.9999845127175158e-01  1.0002461449055691e+00  9.9999829570967957e-01  9.9999834748483585e-01  9.9999950131604776e-01  9.9998849861269667e-01  9.9999837530658364e-01  9.9999969048108472e-01  1.0014175626086390e+00  9.2447865305740073e-01  1.2212576411589904e+00  9.3841722864929988e-01  9.9999956028487169e-01  1.0612790884810579e+00  1.0009819959721098e+00  9.9999830665573575e-01  1.0000000627778942e+00  9.9999823442870872e-01  9.9993417094903825e-01  9.9999885809839018e-01  9.9966712805886504e-01  9.9999818591571299e-01  9.9999828330247265e-01  1.0000271479261875e+00  9.9914683162157047e-01  9.9999824870445353e-01  9.9999833505797164e-01  9.9986685700884304e-01  1.0262744845382150e+00  9.8604753115124522e-01  9.9999999905543746e-01  9.9999840261162609e-01  1.0013046818794602e+00  9.9999827375041261e-01  9.9999841790690180e-01  9.9883396412406167e-01  9.9553597124918713e-01  9.9999815537155834e-01  1.0051507441364573e+00  9.9999749787163383e-01  9.9999831347378632e-01  1.0000002752022161e+00  9.9999807209517411e-01  9.9999825020101940e-01  9.9997940533790142e-01  1.0000000001728351e+00  1.0000086629953624e+00  1.0032283519525809e+00  1.0000003722799335e+00  9.4749242672322542e-01  1.1132336298965857e+00  9.3603798560586693e-01  1.4106946155731241e+00  9.9999819514178101e-01  1.0002799433003000e+00  9.9999823076526839e-01  9.9893593674196368e-01  1.0000000136802722e+00  1.0000050370134399e+00  9.9999836735716074e-01  9.9961939776223507e-01  9.9979741408511180e-01  1.0343096511193965e+00  1.3987587905400098e+00  9.9999826227484323e-01  9.9999834815308719e-01  9.9991880935535449e-01  9.9999826951474291e-01  1.0000749121115469e+00  9.9999978484892182e-01  9.9903638740194201e-01  9.9999840234140236e-01  1.0000000029909284e+00  9.9999718205498045e-01  9.9951886106228216e-01  1.0015506531411944e+00  9.9999810958550150e-01  9.9999969189578419e-01  9.9999998808838619e-01  1.0000000033626950e+00  9.9999998070612817e-01  9.9999999338508605e-01  1.0001107466287265e+00  9.9999844183755848e-01  1.0019012640627538e+00  1.0006983819737361e+00  9.9901032189728634e-01  9.9904567158798507e-01  9.9999837310794093e-01  1.0050857268295847e+00  1.0000000220939562e+00  9.9999999926485494e-01  9.9949592567678347e-01  9.9999993908770379e-01  9.9999953265064656e-01  9.9999856914911689e-01  9.9999826138379244e-01  1.0000020195212382e+00  1.0000032853038319e+00  9.9999843147762668e-01  9.7046680240364402e-01  9.9999999992127997e-01  1.0000000067032944e+00  9.9999500783848894e-01  1.0000003168676008e+00  9.9999829659820016e-01  9.9994894149393809e-01  1.0000000212368965e+00  9.9999870682066971e-01  9.8992387657599901e-01  1.0215316624702371e+00  9.4136844118145346e-01  9.6736530288167588e-01  1.0132656897158649e+00  9.9999988255593997e-01  1.0284009727503087e+00  1.0549162879292802e+00  9.9031416903284830e-01  1.0937333943979577e+00  9.9999902096891846e-01  1.0000163555224639e+00  9.9972570563499386e-01  9.9999641543467921e-01  9.9999819580341864e-01  1.0000016194840755e+00  1.0579076106692402e+00  9.7073869583625705e-01  9.9999832735887273e-01  9.9999999799619510e-01  9.9999826613308274e-01  9.9999816214483661e-01  9.9999823660200216e-01  1.0001434345889140e+00  1.2021789203074096e+00  9.9999999688323793e-01  9.9999991640922559e-01  9.9999998597844986e-01  9.9999994346410803e-01  9.9999997678968044e-01  1.0023586645548113e+00  9.9999937213264412e-01  1.0055187174743223e+00  1.0000530319983836e+00  9.9987917124172787e-01  9.9999829229419235e-01  9.9999824127402248e-01  9.9999816116995843e-01  9.9999830682312452e-01  9.9563710455030163e-01  9.9991848815817896e-01  9.9780178404137143e-01  9.9999817567406180e-01  1.0000058582350249e+00  9.9992283818541339e-01  1.0000302515900830e+00  1.0008521699203841e+00  1.0029224857257093e+00  9.9999816560746868e-01  9.9999827788743023e-01  1.0076140128582733e+00  1.0007541634582398e+00  9.9999826582596707e-01  9.9999817885237829e-01  1.0000000051447659e+00  1.0000432366393226e+00  1.0000369786419188e+00  9.9999300476140363e-01  9.9989408853284334e-01  1.0001667872369353e+00  1.0000375724069699e+00  1.0000000004195104e+00  1.0000000035929217e+00  1.0000000019028337e+00  1.1392285843314383e+00  1.1306343011365785e+00  9.9999812192169013e-01  9.9906869219547256e-01  9.9929076203096345e-01  1.0007404545336311e+00  1.0004092484041416e+00  9.9999819789920952e-01  9.9973715964805132e-01  9.9611220041488224e-01  9.9999787916615934e-01  1.0007030011322589e+00  9.9073430972803489e-01  1.0000000515950709e+00  9.9999832936715771e-01  9.9999822085334700e-01  9.9999816416262532e-01  9.9999816241885586e-01  9.9999874967248414e-01  9.9999833247216363e-01  1.0007238781723338e+00  1.0000000098209290e+00  9.9999826741302367e-01  9.9996283044875922e-01  9.9999822825454399e-01  9.9999978448745364e-01  1.0007164150931924e+00  1.0007363396210345e+00  1.0002198313142416e+00  9.9999821634219155e-01  9.9993732654087419e-01  9.9993192644190487e-01  9.9999827838052824e-01  9.9965486952789551e-01  9.9999958689905066e-01  1.0000003046895978e+00  9.9999814185276659e-01  1.0000000029246134e+00  1.0002789026106531e+00  9.9999811766077507e-01  9.9863678205296513e-01  9.9982520766355631e-01  1.0000025912766159e+00  1.0000588586534254e+00  1.0000000004243950e+00  9.9999999755660429e-01  9.9999998536844359e-01  9.9999970986534936e-01  9.9999844252747216e-01  9.9999848936936175e-01  9.9999990275585782e-01  9.9999812860159576e-01  9.9999953552719900e-01  1.0000162762242453e+00  1.0004416527766484e+00  1.0000000046650028e+00  9.9999827495696680e-01  9.9999982561317924e-01  9.9999827952224607e-01  1.0733062669576034e+00  1.0000000015929045e+00  9.9999827861802015e-01  9.9999824917464586e-01  9.9999822618246303e-01  9.9999821364218489e-01  9.9999834080132288e-01  9.9999826167415362e-01  9.9998861660125526e-01  9.9997734422320494e-01  9.9999820743618584e-01  9.9999979926697036e-01  1.0000447795882343e+00  1.0000462586686740e+00  9.9999818078201097e-01  1.0000090178997718e+00  1.0000006216376829e+00  1.0000002395127447e+00  1.0000000776050353e+00  9.9999821412580070e-01  9.9999979214759871e-01  9.9999978560741143e-01  9.9999830532516576e-01  9.9999791124068871e-01  9.9690140454397025e-01  9.9999941752130317e-01  1.0077241680424069e+00  9.9999983734671283e-01  1.3611084612617415e+00  9.9999639245713834e-01  9.9999364770128740e-01  9.9999999935625616e-01  9.9123946042538347e-01  9.9999828938126001e-01  9.9999824627201639e-01  1.1867264981009893e+00  8.7181891811063805e-01  9.9999833312412789e-01  9.9999825972498879e-01  9.9989191582915637e-01  9.9846684184556145e-01  9.9999822732020516e-01  9.9999831559864283e-01  9.9999825553266741e-01  9.9999829360063541e-01  1.0562860124217346e+00  1.0017701740522977e+00  1.0009041301784558e+00  1.4082281240071861e+00  1.0204718999587326e+00  1.0045080473839263e+00  9.9997842586648733e-01  8.8325413755936133e-01  8.7942169279581328e-01  9.9999999576459964e-01  9.9999998961879910e-01  1.0053082667053681e+00  1.5149822820118661e+00  9.9999784535490366e-01  9.9999639178730770e-01  9.9999999986810617e-01  9.9999830589946381e-01  9.9999909649221863e-01  1.0000114345785365e+00  9.9999818509921545e-01  1.3361266156272795e+00  9.2331560872353791e-01  1.0130348577050041e+00  9.9999834548212330e-01  1.0256751238869832e+00  9.9999999181027177e-01  9.9999776588668432e-01  9.9999833300053631e-01  1.0000021651571267e+00  9.9999835251921199e-01  1.0000000232682460e+00  9.9999956224278297e-01  9.9999682339396612e-01  9.9999949575664804e-01  9.9999803845421242e-01  1.0001150990442502e+00  9.9999895021602170e-01  9.9309811999940056e-01  1.0186729653965734e+00  1.0015457348310568e+00  9.9999976682429770e-01  9.9999956034581461e-01  9.9999955596703305e-01  1.0000894392265336e+00  9.9999951233846363e-01  1.0002618663875362e+00  1.0006411289963200e+00  9.9999939358141332e-01  9.9999949150437295e-01  1.0000277625452165e+00  1.0000070240351191e+00  9.9999935271111828e-01  1.0153050901164038e+00  9.8944279233285204e-01  9.9999982657595543e-01  1.0000021140255233e+00  9.9999993722376113e-01  9.9999987144606306e-01  9.9999975813675868e-01  9.9999953596294633e-01  9.9999993771203011e-01  1.0000003131881332e+00  9.9999989294575131e-01  1.0000000447659481e+00  9.9999999526025174e-01  9.9999999890257740e-01  1.0000000677917136e+00  1.0000996353470735e+00  9.9999459085757414e-01  9.9999100105033134e-01  9.9999999939357676e-01  9.9999999349778745e-01  9.9999999995780342e-01  9.9935457797010063e-01  9.9999992126516335e-01  9.9999960645126829e-01  9.9999947785843202e-01  1.0172971467338783e+00  9.9999437965091142e-01  9.9999953445933643e-01  1.0015515156157342e+00  9.9839056016764294e-01  9.9999951805914922e-01  9.9999845027137890e-01  9.9999976247524580e-01  9.9999948699183472e-01  9.8194418711753395e-01  9.4566259282863541e-01  1.0002386403873127e+00  1.0228119278325301e+00  9.9987494550372014e-01  9.9999836339416226e-01  9.9999822336011090e-01  9.9999821995802984e-01  1.0000008582186544e+00  1.0005745414995173e+00  9.9941919770684107e-01  9.9999830586293292e-01  1.0000079678267697e+00  9.9999817486608678e-01  9.9999964485492610e-01  8.4993310030135161e-01  1.0000006888166171e+00  9.9999821247037546e-01  1.1830544960139791e+00  1.1786937749002171e+00  9.9999807381157502e-01  1.1506528779740821e+00  9.9999975806248920e-01  1.0025056879186633e+00  1.0000008873477155e+00  1.0000000190743537e+00  1.0000003809312437e+00  1.0002457885406018e+00  9.9999835943687421e-01  1.0290679850778830e+00  9.9999820897181146e-01  9.9999989748271889e-01  9.9999958110546050e-01  9.9999971218231387e-01  1.0001928545179157e+00  1.0607198484341109e+00  9.9999783017782551e-01  9.9999988153964314e-01  1.0000010684941845e+00  9.9999984363528682e-01  1.0000003950037850e+00  9.9999843685161760e-01  9.9999921762805188e-01  9.9857786243220759e-01  9.9999948906145819e-01  9.3959569889134709e-01  9.9956974209289162e-01  9.9961043118927850e-01  9.9999952850145957e-01  1.0000006537502817e+00  9.9998666566381100e-01  9.9999999520293670e-01  9.9697134134903076e-01  9.9999992956842032e-01  9.9999967652598543e-01  9.9998018818543444e-01  9.9999967690090752e-01  9.7549356891592787e-01  9.9999972614280586e-01  1.0000000046055122e+00  9.9999970164270957e-01  9.9999967391209799e-01  9.9999984903277161e-01  9.9993041130860938e-01  9.9091263621933234e-01  9.9999996752955500e-01  9.9999960980088665e-01  1.0158515829907446e+00  1.0000000008810233e+00  1.0010378988188877e+00  1.0396215082577567e+00  9.9997183496505293e-01  9.8225058000618992e-01  9.85695897940