<?xml version="1.0"?>
<VTKFile type="UnstructuredGrid"  version="0.1"  >
<UnstructuredGrid>
<Piece  NumberOfPoints="3439" NumberOfCells="6099">
<Points>
<DataArray  type="Float64"  NumberOfComponents="3"  format="ascii">-20 2 0  -20 0 0  -1 0 0  -0.9996988186962042 0.02454122852291233 0  -0.9987954562051724 0.04906767432741797 0  -0.9972904566786902 0.07356456359966773 0  -0.9951847266721968 0.09801714032956083 0  -0.99247953459871 0.1224106751992163 0  -0.989176509964781 0.1467304744553618 0  -0.9852776423889412 0.1709618887603012 0  -0.9807852804032304 0.1950903220161286 0  -0.9757021300385285 0.21910124015687 0  -0.970031253194544 0.2429801799032641 0  -0.9637760657954398 0.2667127574748985 0  -0.9569403357322088 0.2902846772544624 0  -0.9495281805930367 0.3136817403988914 0  -0.9415440651830207 0.3368898533922203 0  -0.9329927988347388 0.3598950365349883 0  -0.9238795325112867 0.3826834323650899 0  -0.9142097557035307 0.4052413140049899 0  -0.9039892931234433 0.427555093430282 0  -0.8932243011955152 0.4496113296546069 0  -0.8819212643483549 0.4713967368259979 0  -0.8700869911087113 0.4928981922297841 0  -0.857728610000272 0.5141027441932218 0  -0.8448535652497071 0.5349976198870972 0  -0.8314696123025453 0.5555702330196022 0  -0.8175848131515836 0.5758081914178454 0  -0.8032075314806448 0.5956993044924335 0  -0.7883464276266062 0.6152315905806269 0  -0.773010453362737 0.6343932841636455 0  -0.7572088465064846 0.6531728429537766 0  -0.7409511253549589 0.6715589548470186 0  -0.7242470829514668 0.6895405447370671 0  -0.7071067811865475 0.7071067811865476 0  -0.6895405447370669 0.7242470829514669 0  -0.6715589548470184 0.740951125354959 0  -0.6531728429537765 0.7572088465064847 0  -0.6343932841636454 0.7730104533627371 0  -0.6152315905806267 0.7883464276266063 0  -0.5956993044924334 0.8032075314806449 0  -0.5758081914178453 0.8175848131515837 0  -0.555570233019602 0.8314696123025455 0  -0.534997619887097 0.8448535652497072 0  -0.5141027441932217 0.8577286100002721 0  -0.492898192229784 0.8700869911087115 0  -0.4713967368259977 0.881921264348355 0  -0.4496113296546067 0.8932243011955152 0  -0.4275550934302819 0.9039892931234434 0  -0.4052413140049897 0.9142097557035307 0  -0.3826834323650897 0.9238795325112867 0  -0.3598950365349882 0.9329927988347388 0  -0.3368898533922199 0.9415440651830208 0  -0.3136817403988914 0.9495281805930367 0  -0.2902846772544622 0.9569403357322089 0  -0.2667127574748983 0.9637760657954398 0  -0.2429801799032639 0.970031253194544 0  -0.2191012401568697 0.9757021300385286 0  -0.1950903220161282 0.9807852804032304 0  -0.1709618887603012 0.9852776423889412 0  -0.1467304744553616 0.989176509964781 0  -0.1224106751992162 0.99247953459871 0  -0.09801714032956065 0.9951847266721969 0  -0.07356456359966733 0.9972904566786902 0  -0.04906767432741801 0.9987954562051724 0  -0.02454122852291214 0.9996988186962042 0  6.123233995736766e-17 1 0  0.02454122852291226 0.9996988186962042 0  0.04906767432741813 0.9987954562051724 0  0.07356456359966745 0.9972904566786902 0  0.09801714032956077 0.9951847266721968 0  0.1224106751992163 0.99247953459871 0  0.1467304744553617 0.989176509964781 0  0.1709618887603014 0.9852776423889412 0  0.1950903220161283 0.9807852804032304 0  0.2191012401568698 0.9757021300385286 0  0.242980179903264 0.970031253194544 0  0.2667127574748984 0.9637760657954398 0  0.2902846772544623 0.9569403357322089 0  0.3136817403988916 0.9495281805930367 0  0.3368898533922201 0.9415440651830208 0  0.3598950365349883 0.9329927988347388 0  0.3826834323650898 0.9238795325112867 0  0.4052413140049899 0.9142097557035307 0  0.4275550934302822 0.9039892931234433 0  0.4496113296546066 0.8932243011955153 0  0.4713967368259978 0.8819212643483549 0  0.4928981922297841 0.8700869911087113 0  0.5141027441932217 0.8577286100002721 0  0.5349976198870973 0.844853565249707 0  0.5555702330196023 0.8314696123025452 0  0.5758081914178453 0.8175848131515837 0  0.5956993044924335 0.8032075314806448 0  0.6152315905806268 0.7883464276266062 0  0.6343932841636455 0.773010453362737 0  0.6531728429537768 0.7572088465064845 0  0.6715589548470183 0.7409511253549591 0  0.6895405447370669 0.7242470829514669 0  0.7071067811865476 0.7071067811865475 0  0.724247082951467 0.6895405447370668 0  0.7409511253549591 0.6715589548470183 0  0.7572088465064846 0.6531728429537768 0  0.773010453362737 0.6343932841636455 0  0.7883464276266063 0.6152315905806268 0  0.8032075314806449 0.5956993044924334 0  0.8175848131515837 0.5758081914178453 0  0.8314696123025452 0.5555702330196022 0  0.8448535652497071 0.5349976198870972 0  0.8577286100002721 0.5141027441932217 0  0.8700869911087115 0.492898192229784 0  0.881921264348355 0.4713967368259976 0  0.8932243011955153 0.4496113296546065 0  0.9039892931234433 0.4275550934302821 0  0.9142097557035307 0.4052413140049899 0  0.9238795325112867 0.3826834323650898 0  0.932992798834739 0.3598950365349881 0  0.9415440651830208 0.3368898533922201 0  0.9495281805930367 0.3136817403988915 0  0.9569403357322088 0.2902846772544623 0  0.9637760657954398 0.2667127574748984 0  0.970031253194544 0.2429801799032639 0  0.9757021300385286 0.2191012401568698 0  0.9807852804032304 0.1950903220161282 0  0.9852776423889412 0.1709618887603012 0  0.989176509964781 0.1467304744553617 0  0.99247953459871 0.1224106751992162 0  0.9951847266721969 0.0980171403295606 0  0.9972904566786902 0.07356456359966743 0  0.9987954562051724 0.04906767432741801 0  0.9996988186962042 0.02454122852291229 0  1 0 0  20 0 0  20 2 0  0 2 0  10 2 0  -10 2 0  10.5 0 0  5 2 0  -10.5 0 0  -5 2 0  15 2 0  5.75 0 0  2.5 2 0  -15 2 0  -5.75 0 0  -2.5 2 0  15.25 0 0  3.375 0 0  -15.25 0 0  -3.375 0 0  17.5 2 0  17.625 0 0  -17.625 0 0  -17.5 2 0  -12.5 2 0  -12.875 0 0  8.125 0 0  7.5 2 0  12.875 0 0  12.5 2 0  -8.125 0 0  -7.5 2 0  -18.75 2 0  -18.8125 0 0  18.75 2 0  18.8125 0 0  -16.25 2 0  -16.4375 0 0  16.4375 0 0  16.25 2 0  13.75 2 0  -14.0625 0 0  -13.75 2 0  11.6875 0 0  -11.6875 0 0  -9.3125 0 0  8.75 2 0  -8.75 2 0  6.9375 0 0  6.25 2 0  -6.9375 0 0  -6.25 2 0  9.3125 0 0  -11.25 2 0  11.25 2 0  3.75 2 0  4.5625 0 0  -4.5625 0 0  -3.75 2 0  1.25 2 0  -1.25 2 0  14.0625 0 0  2.1875 0 0  -2.1875 0 0  -20 1 0  20 1 0  18.21875 0.982421875 0  -18.21875 0.982421875 0  16.875 1.0498046875 0  -17.03125 0.966796875 0  15.625 1.0625 0  -15.84375 0.953125 0  14.375 1.0732421875 0  -14.375 1.0732421875 0  1.830289387965117 1.052284088108649 0  -1.830289387965117 1.052284088108649 0  -3.125 1.08203125 0  -13.28477656888586 1.012129001112436 0  13.125 1.08203125 0  3.125 1.08203125 0  -4.375 1.0888671875 0  11.875 1.0888671875 0  -11.875 1.0888671875 0  4.203765290519877 1.0193030867737 0  -5.625 1.09375 0  5.625 1.09375 0  -10.80634835916782 1.025744365312066 0  10.625 1.09375 0  9.375 1.0966796875 0  -6.875 1.0966796875 0  -9.375 1.0966796875 0  6.684990875912408 1.03136405109489 0  -8.322099415573495 1.036062682633283 0  8.125 1.09765625 0  19.11075969939671 0.8508947319664032 0  -19.11075969939671 0.8508947319664032 0  -7.53125 0 0  8.71875 0 0  7.423362102206937 0.6655467048188293 0  9.90625 0 0  -6.34375 0 0  -10.07209987056368 0.6864155791813131 0  -5.15625 0 0  4.932893941568688 0.70313517104756 0  11.09375 0 0  -3.96875 0 0  12.28125 0 0  -12.56167362378033 0.7158719711052053 0  -15.12789358749343 1.239622257084254 0  19.375 2 0  -19.375 2 0  -7.586458743762512 0.7777256637040587 0  -8.876841588719831 0.5749490497356908 0  -2.78125 0 0  13.46875 0 0  2.486351124110562 0.6882204272146759 0  -2.484375 0.6875496078884429 0  13.765625 0.6685592193186988 0  6.127605163798639 0.5971727330055587 0  0.625 2 0  -0.625 2 0  -1.146535794159178 1.28513409566998 0  1.146535794159178 1.285134095669981 0  14.65625 0 0  14.953125 0.6512707752786624 0  -14.87682753143027 0.5890664696931456 0  12.578125 0.6384885491877257 0  -3.671875 0.6384885491877257 0  -15.625 2 0  -11.36675239212577 0.6158089665857418 0  15.00271470412651 1.324726469417674 0  17.53235848397354 0.7266244978817956 0  11.390625 0.6116981677410314 0  -4.859375 0.6116981677410314 0  15.84375 0 0  16.140625 0.6148897058823529 0  7.497593266890831 1.330710907262048 0  13.76254792112057 1.334335181755445 0  -10.20969602084016 1.352738855957021 0  17.03125 0 0  3.639986821556412 0.6311208834101457 0  -2.422032960990368 1.344610008595471 0  -1.875 2 0  2.42168763602468 1.344854035092462 0  1.875 2 0  -6.046875 0.5879464285714285 0  10.203125 0.5879464285714285 0  4.785027294216357 1.360955117010924 0  -16.43327865604348 1.32661481258014 0  -16.44139997701004 0.663326532427168 0  -12.71719161438206 1.366886164755866 0  9.015625 0.567039754702805 0  -13.85227446991684 0.6433291643838606 0  17.68435132148515 1.367585767263021 0  -8.125 2 0  -7.779164034427432 1.405551895778211 0  6.875 2 0  -16.875 2 0  16.25211206745888 1.264109755085799 0  -3.748868614850469 1.292331074664245 0  12.50113138514953 1.292331074664245 0  -4.999425840599162 1.238293400364507 0  11.25057415940084 1.238293400364507 0  10.00021284174179 1.186027320246887 0  -6.249787158258211 1.186027320246887 0  8.750028772491092 1.133996757348608 0  8.125 2 0  -9.375 2 0  -6.875 2 0  9.375 2 0  10.625 2 0  5.625 2 0  -5.625 2 0  -11.875 2 0  11.875 2 0  -4.375 2 0  3.125 2 0  13.125 2 0  -14.375 2 0  14.375 2 0  15.625 2 0  -18.125 2 0  16.875 2 0  -3.125 2 0  -10.625 2 0  4.375 2 0  -13.125 2 0  18.125 2 0  -17.62042339570457 1.322431301452557 0  -17.64048254773117 0.661277151197267 0  -1.59375 0 0  1.59375 0 0  -19.40625 0 0  19.40625 0 0  20 0.5 0  19.0625 1.466926268772181 0  -18.7305243036722 1.362703047674974 0  -5.451064633443578 0.5209722999527524 0  10.79893536655642 0.5209722999527524 0  9.610417111950763 0.5183010867631196 0  -13.46875 0 0  3.96875 0 0  -11.09375 0 0  6.34375 0 0  2.78125 0 0  -8.71875 0 0  -12.28125 0 0  5.15625 0 0  -9.90625 0 0  7.53125 0 0  -15.84375 0 0  -17.03125 0 0  -18.21875 0 0  18.21875 0 0  -14.65625 0 0  20 1.5 0  -19.48071156660626 1.370757229128913 0  -20 0.5 0  -4.24552725411087 0.5169543671041
[...]
<PointData  Scalars="f_277909"> 
<DataArray  type="Float64"  Name="f_277909"  format="ascii">9.9999157577059028e-01  1.0006729299077233e+00  1.0075177298213713e+00  1.0106918317803353e+00  1.0101316302582732e+00  1.0121797774232946e+00  1.0187334448511578e+00  1.0235656283263155e+00  1.0333692376462875e+00  1.0436100211864312e+00  1.0388891810538186e+00  1.0596598915138862e+00  1.0793171031701185e+00  1.0938634867822266e+00  1.1122880072160040e+00  1.1294230214804679e+00  1.1509484750402070e+00  1.1738568263225246e+00  1.1998372290206676e+00  1.2267853370644528e+00  1.2547674345855471e+00  1.2869057000834470e+00  1.3202929829920582e+00  1.3566417242741360e+00  1.3945494943665075e+00  1.4353912912290132e+00  1.4764073277592324e+00  1.5204538882587888e+00  1.5642338284642570e+00  1.6164771114028225e+00  1.6655768627458154e+00  1.7193048331930225e+00  1.7876711684406945e+00  1.8480983300410032e+00  1.9086618777517874e+00  1.9723563572776981e+00  2.0351122376494302e+00  2.0984125388602801e+00  2.1871601493552784e+00  2.2637833628202739e+00  2.3218625445419856e+00  2.4179638864349084e+00  2.4939108536163856e+00  2.5613896953106807e+00  2.6653185347255155e+00  2.7634738849587968e+00  2.6810264061652380e+00  2.9949007861712356e+00  3.0369965811605395e+00  3.0889359769944256e+00  3.1407359582859571e+00  3.1766948489054139e+00  3.3223899815720790e+00  3.3764159765184174e+00  3.4043873246802447e+00  3.4303225013410996e+00  3.4711739528470131e+00  3.5006974265216830e+00  3.5508395154590584e+00  3.5227575777737719e+00  3.4926918367125799e+00  3.5541535123030754e+00  3.5152546384813230e+00  3.4293014919679488e+00  3.4071674450059515e+00  3.2970252344167683e+00  3.1918247633891528e+00  3.0598928878544607e+00  2.8670788390283817e+00  2.8169784675831586e+00  2.7096616800854414e+00  2.5723257540986841e+00  2.4604684345715908e+00  2.3292250681417754e+00  2.1586717460823404e+00  2.0168141607110392e+00  1.8624967636076517e+00  1.7361528460025635e+00  1.4479880331470139e+00  1.5244791022275377e+00  1.3437297424038841e+00  1.2462921407492711e+00  1.1433972579308862e+00  1.0501915424163968e+00  9.7933677238034811e-01  9.1018902285410752e-01  8.4374545445783089e-01  7.9266153078410961e-01  7.4819812832715393e-01  7.1308635168016121e-01  6.8526799043069009e-01  6.6282617920843512e-01  6.4610880386973679e-01  6.3602489936277495e-01  6.2918028661812497e-01  6.2697757226524375e-01  6.2724381132060125e-01  6.3193669743049730e-01  6.3910084520937027e-01  6.4861796981757103e-01  6.5757318134988574e-01  6.7056972987666530e-01  6.8560605258708895e-01  7.0165165326128665e-01  7.1781675935365008e-01  7.3508828794545378e-01  7.4973398198008190e-01  7.6772147014135461e-01  7.8205246601904899e-01  7.9964677131483008e-01  8.1703144377666725e-01  8.3338342432709644e-01  8.4952089051871849e-01  8.6104721602315615e-01  8.7776887316355301e-01  8.9368601667320835e-01  9.0077382525193617e-01  9.1496558808940254e-01  9.2623030694422803e-01  9.3741060555239253e-01  9.4390998861972963e-01  9.5410484767124837e-01  9.6355162585909537e-01  9.7151962509946943e-01  9.7553056030386420e-01  9.8105670331241601e-01  9.8577552966101190e-01  9.8858234796048972e-01  9.9177519446341000e-01  9.8905897748730986e-01  9.9212276444464886e-01  1.0000000022459654e+00  1.0000000006237577e+00  1.7534643417784035e+00  1.0000000177591115e+00  1.0000000016119817e+00  1.0000000147527826e+00  1.0000094584276107e+00  9.9999999293769326e-01  9.9998891537294243e-01  1.0000000021244746e+00  9.9989118875162875e-01  1.0036059306393477e+00  1.0000000668506295e+00  1.0000946259275987e+00  9.9745223135135619e-01  1.0000000011129311e+00  9.8648788657640496e-01  9.9999779171597547e-01  1.0138928435995380e+00  1.0000000004854330e+00  1.0000000010383836e+00  9.9987168130464577e-01  1.0000184995836217e+00  9.9999999825247055e-01  9.9999999846519516e-01  1.0000004243412837e+00  9.9999956712905980e-01  1.0000000006815177e+00  1.0000000012064685e+00  9.9999997069623492e-01  1.0000001457854404e+00  1.0002018639184678e+00  9.9973268871873799e-01  9.9999999935615080e-01  9.9999999608991252e-01  1.0000013836408643e+00  9.9997741984929578e-01  1.0000000004884946e+00  1.0000000037100460e+00  1.0000000017121873e+00  9.9999985258170265e-01  9.9999999790594152e-01  1.0000000059395762e+00  9.9999999830563369e-01  9.9999997073368196e-01  9.9999994133038939e-01  1.0000000192376453e+00  9.9999717817728606e-01  9.9999843238417696e-01  1.0000047059317017e+00  1.0000004482942531e+00  1.0000001012772055e+00  9.9999999882842394e-01  1.0000000030591800e+00  1.0000680317023936e+00  9.9858812329465652e-01  1.0013346338216504e+00  9.9964599409716837e-01  1.1212187133251124e+00  1.0153058820746479e+00  9.9999999856428201e-01  9.2110229912336350e-01  1.0948517425515645e+00  1.0008732857722553e+00  1.0000000251127157e+00  1.0000000259956197e+00  1.0000386388251963e+00  1.0000000249798198e+00  1.0000193055948094e+00  1.0000000266825650e+00  1.0000030376616107e+00  1.0000000261297082e+00  1.0000001956388507e+00  1.0849041887397559e+00  9.8472104607926747e-01  9.9331090964074198e-01  1.0000000114808094e+00  1.0000000303495309e+00  1.0117996863089449e+00  9.9922613887479328e-01  1.0000000244064642e+00  9.9999999584175803e-01  1.0014892367142276e+00  9.9994419963407100e-01  1.0000945748187404e+00  9.9999999654314775e-01  1.0000000197388981e+00  9.9999994338745801e-01  9.9999722831277083e-01  1.0000000099818929e+00  1.0000059918929500e+00  9.9999999514589211e-01  9.9999984253733964e-01  1.0000000212743099e+00  9.9975173124708072e-01  1.0000005309076734e+00  1.0000001937176706e+00  1.0000010251056914e+00  1.0000000344108015e+00  1.0000240108908709e+00  1.0000000003551093e+00  1.0004220391573355e+00  1.0000037754757065e+00  1.0000000157477942e+00  1.0042182784571334e+00  1.0000000042835735e+00  9.9999999960178276e-01  1.0000011121945382e+00  9.9999999763391878e-01  1.0005952764875916e+00  9.9999959381363190e-01  9.9999996300531213e-01  1.0349751893155497e+00  9.9999999948480156e-01  9.9120824083149950e-01  1.0163404507607097e+00  1.0000000186672715e+00  9.9999731270537573e-01  1.4511062542621875e+00  1.2137405005200830e+00  9.6180491928579293e-01  1.3402337204870565e+00  9.9999999992065469e-01  1.0000000191515215e+00  9.9999982442418689e-01  1.0000000161288196e+00  1.0021524798217214e+00  1.0000002171540483e+00  9.9999999397207762e-01  1.0000000293890552e+00  1.0000000198437489e+00  1.0000000141230174e+00  1.0001591654079371e+00  9.9999999994333932e-01  1.0000000184545537e+00  9.9999933284432241e-01  1.0000000294055276e+00  9.9999999887357505e-01  9.9999999847655052e-01  9.9804351609265918e-01  9.7019923497056293e-01  9.9693525896211321e-01  1.0546812549170492e+00  1.0170856297813542e+00  1.0000016523452366e+00  1.0000000253767258e+00  1.0006628182542308e+00  1.0000172879412230e+00  9.9999558687491164e-01  9.9999999914331028e-01  1.0000001109026906e+00  1.0000000064779428e+00  1.0000000288370241e+00  1.0000000800589401e+00  1.0000001586103495e+00  9.9999917165629115e-01  1.0000051685118658e+00  1.0000000304024468e+00  9.9705505214016388e-01  1.0000000299271303e+00  9.9975669120029675e-01  1.0000000240519700e+00  1.0000000175935806e+00  9.9998683466740657e-01  9.9999990343478018e-01  9.9999996339465957e-01  1.0000000052599032e+00  1.0000004300929337e+00  9.9999999355980884e-01  1.0000000012603287e+00  9.9999956682113467e-01  1.0000030405554898e+00  9.9999999897085345e-01  1.0000000048181088e+00  9.9996522488005979e-01  1.0008265234134672e+00  1.0000000019376027e+00  9.9999999927835503e-01  1.0000000021272646e+00  1.0000000011810539e+00  1.0000328261189249e+00  9.9999999965504294e-01  9.9834287857415549e-01  1.0000000010846406e+00  1.0001105760716174e+00  9.9999999744933421e-01  1.0000000036296401e+00  1.0001135058901098e+00  9.9995179821081548e-01  1.1807392545384474e+00  8.6443187287650258e-01  1.0002752800292254e+00  1.0000000105063376e+00  1.0000000145726087e+00  1.0000000347676890e+00  1.0002673662518364e+00  1.0000510675508967e+00  1.0000000117705281e+00  1.0000000724557014e+00  9.9999996409279956e-01  9.9523556160340865e-01  1.0000000013953108e+00  9.9997626092034553e-01  9.6695238537035633e-01  9.9999993602791537e-01  9.9999999973165343e-01  9.9957995084355300e-01  9.9999998406222079e-01  1.0000002791479865e+00  9.9999261934263872e-01  9.9994093904159109e-01  9.9975106383065326e-01  1.0000000054384370e+00  9.9999934254710887e-01  1.0000000305441918e+00  9.9941497134781165e-01  1.0009888998676357e+00  1.0007803834675497e+00  1.0000000146126786e+00  1.0000000073068993e+00  9.9973991117291272e-01  1.0000000272765375e+00  1.0000000204888799e+00  1.0000000180297550e+00  1.0000000140994056e+00  1.0115380398860692e+00  9.8864799600603492e-01  1.1375811947030463e+00  9.3059201456053897e-01  1.0000000151745543e+00  9.9999794080633575e-01  1.0000000657582118e+00  1.0000000191968810e+00  1.0090122025514203e+00  1.8059706954578214e+00  1.2370746817166052e+00  1.0000000000123541e+00  9.9999999783670301e-01  1.0001396558390623e+00  9.9994929911679986e-01  1.0000248622356818e+00  1.0000001045089690e+00  1.0000001730988675e+00  1.0000000114399166e+00  9.9999998355583919e-01  1.0000000372289544e+00  1.0000002703956630e+00  9.9999999901030168e-01  1.0000000069231700e+00  9.9883299748246557e-01  1.0030579705511404e+00  9.9999999982006982e-01  9.9999999684566288e-01  1.0000003026197208e+00  1.0000059759003059e+00  9.9999968347216384e-01  9.9999993655952923e-01  9.9999978067656270e-01  1.0000029600497471e+00  9.9999988349703595e-01  1.0000000821851274e+00  1.0000000290651676e+00  9.9999917405360272e-01  1.0000525725041174e+00  1.0000000341308619e+00  9.9999999224094960e-01  9.9999847701780087e-01  9.9998488019385112e-01  1.0000000263625741e+00  9.9999994185331609e-01  1.0002978426434335e+00  9.2729863971097726e-01  1.2178284014635572e+00  9.4274048738559146e-01  9.9999990405239791e-01  1.0646534525745222e+00  9.9992436640372995e-01  1.0000000180940025e+00  1.0000000239422437e+00  1.0000000279594197e+00  9.9992175774853365e-01  1.0000004613952567e+00  9.9967838700733036e-01  1.0000000373501066e+00  1.0000000310462138e+00  1.0000247264962654e+00  9.9981577962242751e-01  1.0000000319608846e+00  1.0000000319735021e+00  9.9996964114346376e-01  1.0252910950305576e+00  9.8575137764248577e-01  1.0000000036191661e+00  1.0000000181179931e+00  1.0003229435340133e+00  1.0000000281290553e+00  1.0000000314529334e+00  9.9875509314565314e-01  9.9531970111234513e-01  1.0000000413159220e+00  1.0048472782060212e+00  9.9999932049397411e-01  1.0000000324506753e+00  1.0000000493622245e+00  1.0000000387755947e+00  1.0000000385332664e+00  9.9999510457225760e-01  9.9999999518831417e-01  1.0000017936221524e+00  1.0006399001078534e+00  1.0000014819045291e+00  9.4804752604570697e-01  1.1134631586948505e+00  9.6154015171087359e-01  1.5121264150540257e+00  1.0000000149170625e+00  1.0002500328225259e+00  1.0000000167797196e+00  9.9978306834564623e-01  1.0000000025205413e+00  1.0000012653460217e+00  1.0000000235864923e+00  9.9991210829651089e-01  9.9994353747076881e-01  1.1051188133094592e+00  1.5693158871566502e+00  1.0000000211439544e+00  1.0000000195475045e+00  9.9989573389468378e-01  1.0000000150595627e+00  1.0000415218778489e+00  9.9999992644588920e-01  9.9883655303934848e-01  1.0000000214806140e+00  9.9999999897193381e-01  9.9999966598615309e-01  9.9990608885857835e-01  1.0013786143687238e+00  1.0000000418354242e+00  9.9999936948401025e-01  9.9999999825865915e-01  1.0000000052401938e+00  9.9999999095609293e-01  9.9999999628691705e-01  1.0000218193858772e+00  1.0000000936565987e+00  9.9956646487119594e-01  1.0006510783518314e+00  9.9913885781774470e-01  9.9905258005453879e-01  1.0000000236166173e+00  1.0263775317117492e+00  1.0000000040581452e+00  9.9999999687640950e-01  9.9988379740058142e-01  9.9999987800242085e-01  1.0000000246738914e+00  9.9999903413304669e-01  1.0000000076627347e+00  1.0000004390073141e+00  1.0000007182961743e+00  1.0000000330446990e+00  1.0132024597431399e+00  1.0000000030762688e+00  1.0000000047939792e+00  9.9999474749886785e-01  1.0000001237096485e+00  1.0000000222220196e+00  1.0000304389906853e+00  1.0000001396917844e+00  1.0000006315630798e+00  9.9256204315824892e-01  1.0187246529595559e+00  9.4492846101643180e-01  9.7327883596316456e-01  1.0137251074513858e+00  9.9999997500596449e-01  1.0271342882293835e+00  1.0567260246083556e+00  9.9222108861679981e-01  1.1524553888069813e+00  9.9999944495386539e-01  1.0000031780192000e+00  9.9978518122516757e-01  9.9999849027337018e-01  1.0000000411686238e+00  1.0000028525848708e+00  1.0586666064593047e+00  9.6784186700102337e-01  1.0000000215644580e+00  9.9999999757707780e-01  1.0000000238785340e+00  1.0000000173465198e+00  1.0000000151851594e+00  1.0000306453799868e+00  1.1999639422685497e+00  9.9999999297338082e-01  9.9999996451785811e-01  9.9999998778209609e-01  9.9999998583601890e-01  9.9999998908751286e-01  1.0004311962419634e+00  1.0000000025403113e+00  1.0010000507372407e+00  1.0000115520464079e+00  9.9990447816167016e-01  1.0000000233187658e+00  1.0000000153228261e+00  1.0000000159179534e+00  1.0000000187138887e+00  9.9571508051328095e-01  9.9995372227365342e-01  9.9785149774923387e-01  1.0000000359666745e+00  1.0000060469742726e+00  9.9993490798296858e-01  1.0000278228406616e+00  1.0001696198496932e+00  1.0031264853859136e+00  1.0000000172118331e+00  1.0000000124080028e+00  1.0068748244335832e+00  1.0010858408688641e+00  1.0000000182746192e+00  1.0000000161345830e+00  9.9999999820776420e-01  1.0000084306605719e+00  1.0000078514049640e+00  9.9999850291681702e-01  9.9997756671947680e-01  1.0000345775446162e+00  1.0000472689935003e+00  9.9999999730268363e-01  1.0000000002984570e+00  1.0000000010788728e+00  1.1388611413367264e+00  1.1383692515230415e+00  1.0000000315944837e+00  9.9981127578510276e-01  9.9985003232243019e-01  1.0001512569166711e+00  1.0000880866202870e+00  1.0000000141611816e+00  9.9977976527537915e-01  9.9571649422901820e-01  9.9999667602476494e-01  1.0003415108793758e+00  9.9101573159331846e-01  1.0000000113359095e+00  1.0000000236745559e+00  1.0000000244188776e+00  1.0000000170699188e+00  1.0000000159266598e+00  1.0000005470564637e+00  1.0000000351607814e+00  1.0005467433349464e+00  1.0000000051748710e+00  1.0000000304107868e+00  9.9999030687693502e-01  1.0000000185996687e+00  1.0000000116020202e+00  1.0006730461216822e+00  1.0007949744983193e+00  1.0002125451398336e+00  1.0000000099731130e+00  9.9998695280588368e-01  9.9998540956159798e-01  1.0000000295514500e+00  9.9964302160619256e-01  9.9999992119669001e-01  1.0000000653415142e+00  1.0000000374921110e+00  9.9999999869538603e-01  1.0002710132606301e+00  1.0000000156709776e+00  9.9971671901680381e-01  9.9996398420092714e-01  1.0000058187437280e+00  1.0000046708158246e+00  1.0000000020894082e+00  9.9999999247065663e-01  9.9999999754950097e-01  1.0000000004705085e+00  1.0000000459857112e+00  1.0000002508221890e+00  1.0000001538784460e+00  1.0000000417547814e+00  1.0000000016251447e+00  1.0000036903261349e+00  1.0001366045883564e+00  1.0000003200902703e+00  1.0000000308723491e+00  9.9999999675221751e-01  1.0000000208697670e+00  1.0720306974030496e+00  1.0000000012907675e+00  1.0000000284058639e+00  1.0000000243547289e+00  1.0000000382944401e+00  1.0000000301233258e+00  1.0000000132604938e+00  1.0000000116751877e+00  9.9998908068003500e-01  9.9997663611636145e-01  1.0000000333499506e+00  9.9999999653063909e-01  1.0000456076383906e+00  1.0000526025053265e+00  1.0000000281396564e+00  1.0000101896974407e+00  1.0000001979615452e+00  1.0000000371462534e+00  9.9999984770886685e-01  1.0000000185965339e+00  9.9999999836727593e-01  9.9999999945998597e-01  1.0000000202102546e+00  9.9999986160408738e-01  9.9537826938623530e-01  1.0000000005276692e+00  1.0073278293086185e+00  1.0000000020621633e+00  1.6321718414707302e+00  9.9999587214269825e-01  9.9999872367451259e-01  9.9999999976162934e-01  9.9132541071755531e-01  1.0000000351008800e+00  1.0000000229258450e+00  1.1751614450532528e+00  8.6823906432240150e-01  1.0000000281082919e+00  1.0000000249979242e+00  9.9989947103921883e-01  9.9847280481451073e-01  1.0000000259235691e+00  1.0000000466742001e+00  9.9999999028308073e-01  1.0000000640401623e+00  1.0681880581256757e+00  1.0003028809809384e+00  1.0001504444375837e+00  1.6904609360263445e+00  1.7081938762372582e+00  1.0008417316051261e+00  9.9998729594001112e-01  8.9059915669438183e-01  8.8877839622626320e-01  1.0000000005039411e+00  1.0000000195549286e+00  1.0452594832992388e+00  1.7688971192109508e+00  9.9999980322330506e-01  9.9999781066137405e-01  1.0000000001720051e+00  9.9999967156457659e-01  9.9999981567062013e-01  1.0002182897334086e+00  9.9999998744311946e-01  1.3617301883565323e+00  9.3494285592620407e-01  1.0115989981317755e+00  1.0000000201843173e+00  1.0240843819842795e+00  9.9999999816124807e-01  9.9999957379895910e-01  1.0000000244688043e+00  1.0000004324488441e+00  1.0000000278274850e+00  1.0000000063957772e+00  1.0000001611591351e+00  9.9999904966168141e-01  1.0000000015474557e+00  9.9999999300599507e-01  1.0000817879877528e+00  1.0000026656537826e+00  1.2399704303156858e+00  1.0747597562472533e+00  1.0003619800282815e+00  1.0000000405104152e+00  1.0000000034848258e+00  1.0000000012056947e+00  9.9971057753123527e-01  1.0000000028343117e+00  9.9811020459879807e-01  1.0021979152350435e+00  9.9999999952984286e-01  1.0000000011960197e+00  9.9993370370764900e-01  9.9998140847871053e-01  1.0000000010237411e+00  1.0487804635905571e+00  9.9655959975247221e-01  1.0000000119111312e+00  9.9999999345213597e-01  1.0000005297467709e+00  9.9999995659718266e-01  1.0000000017455237e+00  9.9999997012922215e-01  9.9999996974974303e-01  1.0000005852581262e+00  1.0000000096455386e+00  1.0000000113890206e+00  1.0000000092132464e+00  9.9999999812428053e-01  1.0000003577534351e+00  1.0000802906866262e+00  9.9999944850367306e-01  1.0000014923095206e+00  1.0000000012164929e+00  9.9999999730901057e-01  9.9999999543638507e-01  1.0006768094197553e+00  9.9999999681158680e-01  1.0000000014258859e+00  1.0000000011763448e+00  1.5496921641016070e+00  9.9847570168963662e-01  9.9999999763158531e-01  1.0081074077262044e+00  9.9641434427116016e-01  1.0000000008868257e+00  9.9999887616465843e-01  9.9999982434281853e-01  1.0000000013623642e+00  9.8251629577806932e-01  9.5040435689132474e-01  1.0003248831455276e+00  1.0241589841760601e+00  9.9997438992553489e-01  1.0000000268586970e+00  1.0000000374952831e+00  1.0000000381692520e+00  1.0000000989394089e+00  1.0003923226969076e+00  9.9942803114067602e-01  1.0000000167027674e+00  1.0000092246518912e+00  1.0000000170056076e+00  1.0000000040672890e+00  8.5709031459782603e-01  1.0000001517652650e+00  1.0000000315930657e+00  1.1873002315124708e+00  1.2024543616241812e+00  9.9999992416065675e-01  1.2244685735565040e+00  9.9999999919015270e-01  1.0024929782480203e+00  1.0000023564324934e+00  1.0000000007610537e+00  1.0000000596078720e+00  1.0000509947537803e+00  1.0000000306146546e+00  1.0257976407885439e+00  1.0000000177908306e+00  9.9999991412824829e-01  9.9999993432131273e-01  1.0000000188210958e+00  1.0002090485705979e+00  1.0607344953150508e+00  9.9999944460060175e-01  1.0000000449995494e+00  1.0000001934228804e+00  9.9999994479021737e-01  1.0000001369109057e+00  1.0000001440719959e+00  9.9999931983472479e-01  9.9971386899051840e-01  1.0000000011028474e+00  9.4654950044366737e-01  9.9991255190349804e-01  9.9988575877621910e-01  1.0000000061219816e+00  1.0000017660072602e+00  9.9999188158618313e-01  9.9999998913646060e-01  9.9734536660748474e-01  9.9999998191296602e-01  9.9999999743303880e-01  9.9999590804408545e-01  1.0000000010724623e+00  9.7799067189545708e-01  1.0000000020349988e+00  9.9999999498670855e-01  1.0000000030516196e+00  9.9999992930710935e-01  9.9999994874359632e-01  9.9994439233879262e-01  9.9229871101156542e-01  1.0000004907417348e+00  9.9999993130198739e-01  1.0143797713434750e+00  1.0000000009320236e+00  1.0000735901020739e+00  1.0517312863919810e+00  9.9997037006083189e-01  9.8353967400380826e-01  9.907475998