<?xml version="1.0"?>
<VTKFile type="UnstructuredGrid"  version="0.1"  >
<UnstructuredGrid>
<Piece  NumberOfPoints="1349" NumberOfCells="2290">
<Points>
<DataArray  type="Float64"  NumberOfComponents="3"  format="ascii">-20 2 0  -20 0 0  -1 0 0  -0.9996988186962042 0.02454122852291233 0  -0.9987954562051724 0.04906767432741797 0  -0.9972904566786902 0.07356456359966773 0  -0.9951847266721968 0.09801714032956083 0  -0.99247953459871 0.1224106751992163 0  -0.989176509964781 0.1467304744553618 0  -0.9852776423889412 0.1709618887603012 0  -0.9807852804032304 0.1950903220161286 0  -0.9757021300385285 0.21910124015687 0  -0.970031253194544 0.2429801799032641 0  -0.9637760657954398 0.2667127574748985 0  -0.9569403357322088 0.2902846772544624 0  -0.9495281805930367 0.3136817403988914 0  -0.9415440651830207 0.3368898533922203 0  -0.9329927988347388 0.3598950365349883 0  -0.9238795325112867 0.3826834323650899 0  -0.9142097557035307 0.4052413140049899 0  -0.9039892931234433 0.427555093430282 0  -0.8932243011955152 0.4496113296546069 0  -0.8819212643483549 0.4713967368259979 0  -0.8700869911087113 0.4928981922297841 0  -0.857728610000272 0.5141027441932218 0  -0.8448535652497071 0.5349976198870972 0  -0.8314696123025453 0.5555702330196022 0  -0.8175848131515836 0.5758081914178454 0  -0.8032075314806448 0.5956993044924335 0  -0.7883464276266062 0.6152315905806269 0  -0.773010453362737 0.6343932841636455 0  -0.7572088465064846 0.6531728429537766 0  -0.7409511253549589 0.6715589548470186 0  -0.7242470829514668 0.6895405447370671 0  -0.7071067811865475 0.7071067811865476 0  -0.6895405447370669 0.7242470829514669 0  -0.6715589548470184 0.740951125354959 0  -0.6531728429537765 0.7572088465064847 0  -0.6343932841636454 0.7730104533627371 0  -0.6152315905806267 0.7883464276266063 0  -0.5956993044924334 0.8032075314806449 0  -0.5758081914178453 0.8175848131515837 0  -0.555570233019602 0.8314696123025455 0  -0.534997619887097 0.8448535652497072 0  -0.5141027441932217 0.8577286100002721 0  -0.492898192229784 0.8700869911087115 0  -0.4713967368259977 0.881921264348355 0  -0.4496113296546067 0.8932243011955152 0  -0.4275550934302819 0.9039892931234434 0  -0.4052413140049897 0.9142097557035307 0  -0.3826834323650897 0.9238795325112867 0  -0.3598950365349882 0.9329927988347388 0  -0.3368898533922199 0.9415440651830208 0  -0.3136817403988914 0.9495281805930367 0  -0.2902846772544622 0.9569403357322089 0  -0.2667127574748983 0.9637760657954398 0  -0.2429801799032639 0.970031253194544 0  -0.2191012401568697 0.9757021300385286 0  -0.1950903220161282 0.9807852804032304 0  -0.1709618887603012 0.9852776423889412 0  -0.1467304744553616 0.989176509964781 0  -0.1224106751992162 0.99247953459871 0  -0.09801714032956065 0.9951847266721969 0  -0.07356456359966733 0.9972904566786902 0  -0.04906767432741801 0.9987954562051724 0  -0.02454122852291214 0.9996988186962042 0  6.123233995736766e-17 1 0  0.02454122852291226 0.9996988186962042 0  0.04906767432741813 0.9987954562051724 0  0.07356456359966745 0.9972904566786902 0  0.09801714032956077 0.9951847266721968 0  0.1224106751992163 0.99247953459871 0  0.1467304744553617 0.989176509964781 0  0.1709618887603014 0.9852776423889412 0  0.1950903220161283 0.9807852804032304 0  0.2191012401568698 0.9757021300385286 0  0.242980179903264 0.970031253194544 0  0.2667127574748984 0.9637760657954398 0  0.2902846772544623 0.9569403357322089 0  0.3136817403988916 0.9495281805930367 0  0.3368898533922201 0.9415440651830208 0  0.3598950365349883 0.9329927988347388 0  0.3826834323650898 0.9238795325112867 0  0.4052413140049899 0.9142097557035307 0  0.4275550934302822 0.9039892931234433 0  0.4496113296546066 0.8932243011955153 0  0.4713967368259978 0.8819212643483549 0  0.4928981922297841 0.8700869911087113 0  0.5141027441932217 0.8577286100002721 0  0.5349976198870973 0.844853565249707 0  0.5555702330196023 0.8314696123025452 0  0.5758081914178453 0.8175848131515837 0  0.5956993044924335 0.8032075314806448 0  0.6152315905806268 0.7883464276266062 0  0.6343932841636455 0.773010453362737 0  0.6531728429537768 0.7572088465064845 0  0.6715589548470183 0.7409511253549591 0  0.6895405447370669 0.7242470829514669 0  0.7071067811865476 0.7071067811865475 0  0.724247082951467 0.6895405447370668 0  0.7409511253549591 0.6715589548470183 0  0.7572088465064846 0.6531728429537768 0  0.773010453362737 0.6343932841636455 0  0.7883464276266063 0.6152315905806268 0  0.8032075314806449 0.5956993044924334 0  0.8175848131515837 0.5758081914178453 0  0.8314696123025452 0.5555702330196022 0  0.8448535652497071 0.5349976198870972 0  0.8577286100002721 0.5141027441932217 0  0.8700869911087115 0.492898192229784 0  0.881921264348355 0.4713967368259976 0  0.8932243011955153 0.4496113296546065 0  0.9039892931234433 0.4275550934302821 0  0.9142097557035307 0.4052413140049899 0  0.9238795325112867 0.3826834323650898 0  0.932992798834739 0.3598950365349881 0  0.9415440651830208 0.3368898533922201 0  0.9495281805930367 0.3136817403988915 0  0.9569403357322088 0.2902846772544623 0  0.9637760657954398 0.2667127574748984 0  0.970031253194544 0.2429801799032639 0  0.9757021300385286 0.2191012401568698 0  0.9807852804032304 0.1950903220161282 0  0.9852776423889412 0.1709618887603012 0  0.989176509964781 0.1467304744553617 0  0.99247953459871 0.1224106751992162 0  0.9951847266721969 0.0980171403295606 0  0.9972904566786902 0.07356456359966743 0  0.9987954562051724 0.04906767432741801 0  0.9996988186962042 0.02454122852291229 0  1 0 0  20 0 0  20 2 0  0 2 0  -10 2 0  10 2 0  -10.5 0 0  -5 2 0  10.5 0 0  5 2 0  -15 2 0  -5.75 0 0  -2.5 2 0  15 2 0  5.75 0 0  2.5 2 0  -15.25 0 0  -3.375 0 0  15.25 0 0  3.375 0 0  -17.625 0 0  -17.5 2 0  17.5 2 0  17.625 0 0  8.125 0 0  7.5 2 0  12.875 0 0  12.5 2 0  -12.5 2 0  -12.875 0 0  -8.125 0 0  -7.5 2 0  -18.75 2 0  -18.8125 0 0  18.75 2 0  18.8125 0 0  16.4375 0 0  16.25 2 0  -16.25 2 0  -16.4375 0 0  13.75 2 0  -14.0625 0 0  -13.75 2 0  -11.6875 0 0  11.6875 0 0  -9.3125 0 0  8.75 2 0  -8.75 2 0  6.9375 0 0  6.25 2 0  -6.9375 0 0  -6.25 2 0  9.3125 0 0  11.25 2 0  -11.25 2 0  3.75 2 0  4.5625 0 0  -4.5625 0 0  -3.75 2 0  -1.25 2 0  1.25 2 0  14.0625 0 0  2.1875 0 0  -2.1875 0 0  -20 1 0  20 1 0  18.21875 0.982421875 0  -18.21875 0.982421875 0  16.875 1.0498046875 0  -17.03125 0.966796875 0  -15.84375 0.953125 0  15.625 1.0625 0  14.375 1.0732421875 0  -14.375 1.0732421875 0  1.830289387965117 1.052284088108649 0  -1.830289387965117 1.052284088108649 0  -3.125 1.08203125 0  -13.28477656888586 1.012129001112436 0  13.125 1.08203125 0  3.125 1.08203125 0  -4.375 1.0888671875 0  11.875 1.0888671875 0  -11.875 1.0888671875 0  4.203765290519877 1.0193030867737 0  -5.625 1.09375 0  5.625 1.09375 0  10.625 1.09375 0  -10.80634835916782 1.025744365312066 0  9.375 1.0966796875 0  -6.875 1.0966796875 0  -9.375 1.0966796875 0  6.684990875912408 1.03136405109489 0  -8.322099415573495 1.036062682633283 0  8.125 1.09765625 0  19.11075969939671 0.8508947319664032 0  -19.11075969939671 0.8508947319664032 0  -7.53125 0 0  8.71875 0 0  7.423362102206937 0.6655467048188293 0  9.90625 0 0  -6.34375 0 0  -10.07209987056368 0.6864155791813131 0  -5.15625 0 0  4.932893941568688 0.70313517104756 0  11.09375 0 0  -3.96875 0 0  12.28125 0 0  -12.56167362378033 0.7158719711052053 0  -15.12789358749343 1.239622257084254 0  19.375 2 0  -19.375 2 0  -7.586458743762512 0.7777256637040587 0  -8.876841588719831 0.5749490497356908 0  -2.78125 0 0  13.46875 0 0  2.486351124110562 0.6882204272146759 0  -2.484375 0.6875496078884429 0  13.765625 0.6685592193186988 0  6.127605163798639 0.5971727330055587 0  0.625 2 0  -0.625 2 0  -1.146535794159178 1.28513409566998 0  1.146535794159178 1.285134095669981 0  14.65625 0 0  14.953125 0.6512707752786624 0  -14.87682753143027 0.5890664696931456 0  12.578125 0.6384885491877257 0  -3.671875 0.6384885491877257 0  -15.625 2 0  -11.36675239212577 0.6158089665857418 0  15.00271470412651 1.324726469417674 0  17.53235848397354 0.7266244978817956 0  11.390625 0.6116981677410314 0  -4.859375 0.6116981677410314 0  15.84375 0 0  16.140625 0.6148897058823529 0  7.497593266890831 1.330710907262048 0  13.76254792112057 1.334335181755445 0  -10.20969602084016 1.352738855957021 0  17.03125 0 0  3.639986821556412 0.6311208834101457 0  -2.422032960990368 1.344610008595471 0  -1.875 2 0  2.42168763602468 1.344854035092462 0  1.875 2 0  -6.046875 0.5879464285714285 0  10.203125 0.5879464285714285 0  4.785027294216357 1.360955117010924 0  -16.43327865604348 1.32661481258014 0  -16.44139997701004 0.663326532427168 0  -12.71719161438206 1.366886164755866 0  9.015625 0.567039754702805 0  -13.85227446991684 0.6433291643838606 0  17.68435132148515 1.367585767263021 0  -8.125 2 0  -7.779164034427432 1.405551895778211 0  6.875 2 0  -16.875 2 0  16.25211206745888 1.264109755085799 0  -3.748868614850469 1.292331074664245 0  12.50113138514953 1.292331074664245 0  -4.999425840599162 1.238293400364507 0  11.25057415940084 1.238293400364507 0  10.00021284174179 1.186027320246887 0  -6.249787158258211 1.186027320246887 0  8.750028772491092 1.133996757348608 0  8.125 2 0  -9.375 2 0  -6.875 2 0  9.375 2 0  10.625 2 0  5.625 2 0  -5.625 2 0  -11.875 2 0  11.875 2 0  -4.375 2 0  3.125 2 0  13.125 2 0  -14.375 2 0  14.375 2 0  15.625 2 0  -18.125 2 0  16.875 2 0  -3.125 2 0  -10.625 2 0  4.375 2 0  -13.125 2 0  18.125 2 0  -17.62042339570457 1.322431301452557 0  -17.64048254773117 0.661277151197267 0  -1.59375 0 0  1.59375 0 0  -19.40625 0 0  19.40625 0 0  20 0.5 0  19.0625 1.466926268772181 0  -18.7305243036722 1.362703047674974 0  -5.451064633443578 0.5209722999527524 0  10.79893536655642 0.5209722999527524 0  9.610417111950763 0.5183010867631196 0  -13.46875 0 0  3.96875 0 0  -11.09375 0 0  6.34375 0 0  2.78125 0 0  -8.71875 0 0  -12.28125 0 0  5.15625 0 0  -9.90625 0 0  7.53125 0 0  -15.84375 0 0  -17.03125 0 0  -18.21875 0 0  18.21875 0 0  -14.65625 0 0  20 1.5 0  -19.48071156660626 1.370757229128913 0  -20 0.5 0  -4.24552725411087 0.5169543671041
[...]
<PointData  Scalars="f_429458"> 
<DataArray  type="Float64"  Name="f_429458"  format="ascii">-2.0571991082162414e-02  -2.3585280687570172e-04  2.1056767723346532e-03  -1.3222276192960436e-02  -2.4210185428873904e-02  -3.4499694003256087e-02  -4.6513068442031999e-02  -6.0280495571095431e-02  -6.3833746703741423e-02  -6.2708585173459855e-02  -6.7322921307429590e-02  -9.2614300166947439e-02  -1.0485226921091824e-01  -1.0910469834020817e-01  -1.1443343668355886e-01  -1.1710436410983481e-01  -1.1942543155647903e-01  -1.1851965573873487e-01  -1.1670711975342524e-01  -1.0867093889553833e-01  -1.0461132009525637e-01  -9.7068129286427079e-02  -8.7372229460953105e-02  -6.8195273563866149e-02  -5.3488641024593435e-02  -3.2776218964023163e-02  -1.5435021528841100e-02  1.8483979770110195e-02  4.2809595104035161e-02  7.4494128441507768e-02  1.0173357607301768e-01  1.4351404068774329e-01  1.7995156998057243e-01  2.2323002950249055e-01  2.7525816787452245e-01  3.1116360045065444e-01  3.7732650316865807e-01  4.2453542141032463e-01  4.8747212209768326e-01  5.3988056046600097e-01  5.9282924258538383e-01  6.6273480376769689e-01  7.2376421877109198e-01  7.7072289680961503e-01  8.1446014970625313e-01  1.0157109771177963e+00  8.7389341280241839e-01  9.0177509673441114e-01  1.0994318504473339e+00  1.1439796831424216e+00  1.2229565638325872e+00  1.2668406486561994e+00  1.3224349049427533e+00  1.3746031805347265e+00  1.3992086153255210e+00  1.3866454992974320e+00  1.4105583884523178e+00  1.4152526669570600e+00  1.4171567018123317e+00  1.4186073909399677e+00  1.4249715265330136e+00  1.4293354281189101e+00  1.4092044492497515e+00  1.3771179685544166e+00  1.3486034912434302e+00  1.3062077714050366e+00  1.2468910283292494e+00  1.1725517586243492e+00  1.1177520747949441e+00  1.0655546813546100e+00  1.0077013379716275e+00  9.5769502649279314e-01  8.6994664700635782e-01  7.9374697153177265e-01  7.3032485674626457e-01  6.7631859055807408e-01  3.8579686314472689e-01  1.3879064125914584e-01  7.2340316493253365e-01  5.0559990323119064e-01  3.5229074443720121e-01  2.6907177859217396e-01  2.0731143757857262e-01  1.7648668214855392e-01  1.0579203177562177e-01  6.4051914820658196e-02  1.2207904359412533e-02  -9.8030179354113168e-03  -3.6862804410754270e-02  -7.4964882837775387e-02  -1.1114102084866538e-01  -1.3475707128849093e-01  -1.5805485262728819e-01  -1.8418590023190468e-01  -2.0369922504744023e-01  -2.1845142415779384e-01  -2.2174945745693794e-01  -2.3012703118619940e-01  -2.3356541162726335e-01  -2.3729479723610550e-01  -2.4109575171651371e-01  -2.4631943670252651e-01  -2.4495527137730513e-01  -2.4937897621829333e-01  -2.4581801841207740e-01  -2.4384693455552764e-01  -2.4038770839068199e-01  -2.2912244947384119e-01  -2.2493217387229536e-01  -2.2036413103874133e-01  -2.1628767682744168e-01  -2.0732426762480330e-01  -1.9877122581190776e-01  -1.9796035410264556e-01  -1.9465797677691041e-01  -1.4611704940194081e-01  -1.4138995704097967e-01  -1.4552135737173863e-01  -1.4018557429742251e-01  -1.3044402149320020e-01  -1.1897630666628971e-01  -1.0205259954356892e-01  -9.1891583072803165e-02  -8.1500248937110054e-02  -6.9535320431287767e-02  -5.8344266915281842e-02  -4.5622088893608435e-02  -3.4420063812365287e-02  -2.3544723350386206e-02  -1.2746568425223216e-02  1.7902675447472266e-03  3.1137484263128034e-06  2.9805418007692645e-05  -5.7048315508629766e-01  8.0145705401971013e-09  3.0796422081814881e-05  -5.2667847095037073e-09  -4.0013980316485145e-05  2.9991246475287433e-06  -1.1712442729898779e-04  -2.8882537958158393e-07  2.8823811241991875e-05  -2.3540821152777648e-02  3.0811556672322483e-05  5.5348192539395315e-05  -3.3696311639274272e-02  8.7785917235497988e-07  3.1433780536428506e-03  2.9662441430180526e-06  4.8565438350419996e-03  4.0709663193941820e-05  -6.6478427807598357e-05  3.0596495077425402e-05  3.0864959761143675e-06  2.8886563963570758e-06  3.2259015582404810e-05  2.9563246607687485e-06  3.0617718316650866e-05  4.5453339594643078e-09  1.3902698029553872e-09  -9.3831573052242017e-08  9.5698558297741367e-07  -5.6924161506357110e-04  2.3091335855879382e-05  3.0861204329046191e-05  2.8324616452459018e-06  2.9895421045105912e-06  3.0656156214292674e-05  -5.5916050924974025e-06  7.2963404136801614e-06  3.0781430312795869e-05  7.4506987951955474e-08  6.4918050097839239e-09  -2.2760347020900644e-09  2.9879384688735337e-06  -2.7180277432478494e-08  3.0937563127354696e-05  1.0486304323366464e-07  6.2172704273112119e-06  3.2383614238382059e-05  1.2899632328975616e-06  4.5489595241863076e-06  3.0127913126630095e-06  3.0501926745597904e-05  2.7746107439841673e-09  -2.7378265965824623e-03  6.6731065847107666e-04  3.9002612162141170e-04  -1.4679974968253417e-03  -1.8466485124778353e-01  -2.7209825347720246e-01  3.1870877844395628e-06  2.2646557406468534e-02  1.8892585407158591e-02  -1.0606855995826742e-02  1.6508386972576818e-05  1.7185441494537471e-05  2.6328089811865503e-04  1.7954806185692474e-05  5.1478339391967971e-05  6.0856493062533718e-06  1.8155604213676689e-05  1.8416051223448807e-05  2.1217069016689100e-07  1.1925189381519097e-01  9.1661478217704817e-02  1.1028188024338668e-02  7.9814438586183060e-09  1.8421380803551254e-05  1.6481335929305896e-02  9.0406903185870087e-04  1.8412257459979513e-05  -2.0508516550756740e-09  2.5148311038659661e-03  4.6338851538581966e-05  1.1490870028143881e-04  1.8492517310028024e-05  -4.4991652733777165e-09  1.8514373680114229e-05  -3.7350378418211173e-07  -5.1049480698433071e-08  2.3305807883703811e-05  -2.9713239003818345e-07  1.8156744157422370e-05  1.4902804398615023e-05  1.0995637492365446e-07  2.8951081019644065e-08  3.0100460923337554e-06  1.2699622701901065e-05  2.9809182835343639e-06  6.4595848477907033e-06  -2.1468885632424714e-08  1.0705401442545526e-04  7.6706892276514824e-04  2.9896580026528933e-06  1.2933114930360353e-03  3.2191537225817309e-06  -5.8181233487756614e-10  7.2104023111770697e-07  3.0491909794392272e-05  -1.5915608043850767e-03  -5.1917212691469695e-07  -1.4187589880628650e-07  9.1726626498835930e-03  3.0101583268415825e-06  5.8677301061553590e-02  4.3733481408638010e-02  1.2080070766365711e-05  6.6918352626410045e-05  -4.8168347320044042e-01  -3.5560058014966017e-01  1.1178284538367320e-01  1.5213015751207504e-01  2.9522129098674702e-06  1.1976263098910978e-05  1.0798633991439004e-06  1.1779597051110532e-05  5.7450013189045569e-03  -1.4161078714757398e-06  -3.2846848380091714e-09  2.1976973448014465e-05  1.2985278990515581e-05  1.1240467955610443e-05  5.3096114198067422e-04  2.9337172278869556e-06  1.1389954709227172e-05  2.1382115077078441e-05  2.2092762754061224e-05  -4.6274125735953673e-09  2.9939685620059340e-06  9.1950031053127153e-03  1.9155248188467471e-02  -6.8268599476112315e-02  2.3678576008726710e-02  -9.6201327556664509e-02  3.2935303255576821e-05  1.1014351732494367e-05  2.2212108786399631e-04  8.1266322796292491e-06  2.2651431165920801e-05  -2.2182203624257007e-09  1.0544135674972917e-05  9.8541474411791348e-08  2.2619900613122851e-05  3.5421014639059606e-07  -2.7744061811145635e-07  3.3666340898166371e-05  -2.0372038228522525e-05  2.1061769805655148e-05  1.9170123094162295e-03  2.1455124195195493e-05  1.4191054057635836e-04  2.0626829197960839e-05  1.9838600548770109e-05  3.7090659533382544e-06  1.8775474604745182e-05  3.1413054898015637e-05  3.0107560296768342e-08  2.4237189074017018e-06  3.0688996760983412e-05  3.0779881238262075e-05  1.0823786687500090e-05  2.6495357020579692e-06  2.8090809204739132e-09  3.0707659101260436e-05  -2.9315189796636285e-04  -9.3775706146674211e-03  3.0616915248289720e-05  -2.9192708955127221e-08  3.0710549184359436e-05  3.0800830312797762e-05  -2.1136365930573119e-04  3.0696234908772724e-05  -6.2269086353960376e-03  3.3795900936938012e-09  -6.8756945041553621e-04  8.0766826696158445e-09  3.0690606820343343e-05  6.7375479338662564e-05  1.3123043873078592e-04  2.5944751904909139e-02  2.1990054544477947e-02  -2.4897417921119130e-04  2.7223202785375617e-06  9.1980950019627114e-06  2.4053764391145034e-05  2.7088484601760790e-04  1.3780936347779972e-04  9.9678613642396103e-06  9.8750627209160153e-06  1.8058445861388096e-08  2.0791506851912055e-03  -2.7843131964975238e-09  1.6307033643885466e-05  1.3131154887854447e-02  -5.9758948358880179e-08  -1.5023370726201471e-09  2.0878001582014835e-04  -1.2163661369591772e-08  3.5446866065284554e-06  2.6374406078120873e-06  1.8071558450072085e-05  5.6674157968093596e-05  2.9262869206886567e-06  2.7522578895911751e-07  2.4450762820159163e-05  -9.9060030622939374e-04  -4.9911221763442298e-03  1.7980042598936495e-03  9.7936286910413408e-06  -2.0576346296359254e-09  2.0896264715741314e-04  2.5035812683053387e-05  1.0538295793527792e-05  9.6492243464169391e-06  9.7739960222817682e-06  1.6544371592640404e-02  2.2770394531436474e-02  1.3736655581502966e-01  1.4772928260854282e-01  9.4731197144008483e-06  3.8818308431000363e-06  -1.1517597398979974e-08  9.6726652497173787e-06  -8.0382493801582107e-05  -1.7122512889390779e-02  -3.3976850126450187e-02  -1.0930857919876961e-10  -3.9173780404327843e-10  1.0149548407611319e-05  2.1126305849254024e-04  1.9058661563154230e-05  -3.1180874597323729e-07  5.6204075825816094e-06  7.0235400086713519e-10  -6.0149977796550381e-08  -1.9250448226561549e-09  9.9737548877702516e-06  1.4650235437384134e-08  -4.0232635582546755e-09  2.7257029193694256e-03  1.4931966202038179e-04  -6.3018131581310092e-09  -1.7615222333451280e-10  -1.0639610108000479e-08  1.6937741059459865e-07  2.5297025726289207e-05  2.5546662464419952e-05  2.2910114945213188e-05  2.2879976472272004e-05  -3.3240678951081973e-07  -2.5643322022873903e-08  1.9944045632656051e-05  2.2924372475145029e-05  6.1504386530604942e-06  2.5383649818404598e-05  2.5730155915508771e-05  -7.4643363852399651e-07  -3.4017202970177299e-06  2.5279311269262098e-05  3.5138542585940789e-07  6.7810457432911038e-05  -1.1249180978366710e-02  -3.7063968716733904e-02  9.3450439217143758e-02  5.8283278312198648e-07  8.1626816518801479e-02  -1.6111677032390904e-02  9.6621897108686947e-06  -1.2545307039443298e-07  2.5797914703750342e-05  -8.1289306928039157e-06  1.1436522386587407e-05  -6.4580994665993581e-05  2.6429799383812092e-05  2.5052727181305490e-05  4.0857954650110948e-05  1.7942011320706627e-04  2.6583317992554776e-05  2.5032941896042803e-05  4.3019210075930829e-05  -6.3231008018665462e-03  7.6839535971329285e-04  -2.0544939432329810e-09  9.3414763191347024e-06  -6.8677336060064993e-04  1.9350304570954695e-05  2.5244467679889062e-05  -1.8879558146873612e-05  -1.2741698382339197e-03  2.6827789036042811e-05  5.5563195511935046e-03  2.5097531266086872e-05  2.4820593878726360e-05  3.4377231833667219e-08  2.6780580934633204e-05  2.5123170247783922e-05  9.8345437294506539e-06  -2.2583369508147846e-09  -1.7523243498564388e-07  -1.3787138825559119e-04  1.7883290063172735e-05  1.6716536202079586e-02  1.3676969947035735e-02  -1.0652671871108493e-01  -1.8674552980694051e-01  6.8477360110845686e-06  3.1171552821743285e-04  8.0524748696333907e-06  -2.0901664775279910e-05  -2.2288000945837303e-08  2.7172586269720070e-06  1.9542974096200603e-05  6.3077878199154598e-05  -1.2154124340781195e-03  1.5666175736503404e-01  2.6119715567593166e-01  1.4787058772086525e-05  1.2443010056259671e-05  1.8189293868035375e-04  1.5687895474163551e-05  -1.2490043804405960e-04  -1.7735740537674528e-07  2.7561601982384592e-03  1.6334752043908257e-05  -1.5321636300815022e-09  1.1113557015812783e-05  3.2385839515051458e-04  4.1729099472186630e-04  2.6558782825051146e-05  -7.4879816279622615e-07  -1.8533928201848704e-09  -9.5366417939762057e-09  -7.9551395149209227e-09  -1.0985155303620406e-08  -4.9331630891799741e-06  1.6555569835148400e-05  -3.5239970364774002e-03  1.1415452484614045e-03  3.8661329780074918e-04  1.1180993546627534e-03  1.6698018407461978e-05  1.4641360510743556e-01  -4.1814299646001924e-10  2.1416191076626567e-09  1.7803927038094206e-04  -4.8661278169942657e-07  -1.3951792262388651e-07  9.9654825030010887e-07  1.5618183236217095e-05  6.8742465649186436e-07  -2.0730504543991569e-07  2.5886567119049986e-05  2.1833319881535612e-01  4.5369544102830278e-09  -1.2791461417036732e-09  4.3734801759334391e-06  3.4496140736091978e-08  1.7251127045505353e-05  -2.9472412242285826e-04  6.2067988347848745e-07  7.3609101703586502e-06  2.5705050863479524e-02  3.4580357141644168e-02  4.8371566588192479e-02  3.2047049781621741e-02  9.4054793661886155e-02  4.3140468589338914e-08  2.3910849197376148e-02  4.0695342370222057e-02  5.6104490472726420e-02  2.0400438112873120e-01  3.2782972561847875e-05  2.1688119757352269e-06  4.1838219767546662e-04  2.7187003329432842e-05  2.6802386967447989e-05  1.8386497882347051e-05  -2.3923818310424238e-02  -1.2920392676112235e-02  1.5019885448934591e-05  5.9950428638850427e-09  1.7266871095176738e-05  7.4000361617836932e-06  7.2564029228647341e-06  1.9518126518237647e-05  1.3016197692891934e-01  -9.5167297306819474e-08  -7.0155716992448412e-08  -2.1959794010953219e-07  -1.9008846227179040e-08  -2.8175196694816609e-08  -1.3887289587243272e-04  2.8182470994657633e-06  -5.6298733174519416e-05  2.8384577660030010e-05  -3.4966024868029616e-05  1.7182351708707926e-05  7.4297827420293174e-06  7.4124249330700463e-06  1.2802945672593375e-05  4.6824718060910269e-03  4.7068086759972944e-03  -6.4782223012420945e-04  2.6878425808776106e-05  3.5349144736075199e-05  9.0044310469762875e-05  1.1958299297591880e-04  -2.2211448773094774e-05  2.8486879362381798e-03  7.1759984433590123e-06  7.9172843981932691e-06  8.0984062000048571e-03  1.0814835219827299e-02  1.3549905459042439e-05  7.9978049676121692e-06  -2.3643528921862043e-09  -2.3146048076325202e-06  6.0801312073165860e-06  1.6322469288738672e-06  7.5182006544344954e-05  9.5693009977795046e-05  3.7952323078511762e-04  -4.5511072578829700e-09  -2.6986441403314620e-09  -2.3258660329852529e-09  2.3037707499665192e-02  7.2746588172820620e-02  2.7103367128461357e-05  5.1043949182037967e-05  1.0070020110577893e-04  1.4621701412256903e-04  -1.7135745098103053e-05  2.6911759116584951e-05  1.0445528334729223e-04  6.1130274629636163e-03  -4.8044238228475955e-07  1.6170187542596703e-02  7.2325694613193858e-03  2.8791254468977891e-08  1.8337647480361401e-05  1.6716652640723491e-05  7.2729309001260971e-06  7.4139809229844451e-06  6.3912277171269867e-06  1.5465012129876204e-05  -2.7855778850461210e-04  2.9107656812136043e-09  1.3413608148233597e-05  1.0644407193383871e-03  7.5411336220922985e-06  3.3599610315795656e-06  8.1141731573994497e-04  2.2738324238105780e-04  2.5312159405406519e-04  7.3654448863619078e-06  4.6805245287202283e-06  1.2910125958602277e-05  1.7950187044029353e-05  4.6145567220273964e-04  8.9283845448386235e-08  1.8167814410543619e-07  2.7058465790930397e-05  1.6147543386992009e-09  -7.8812651951746078e-05  6.9490248999011885e-06  1.3326723711450835e-04  1.1637858105354957e-05  -3.6448457885387098e-05  1.8903768538761802e-04  -3.9434087746981735e-09  -3.7380876566110820e-08  4.4997692537607811e-10  3.0797358531003467e-05  1.2368657520104006e-05  6.8015537349040860e-06  2.9635202679388725e-06  2.7163660425734852e-05  3.0648747397543440e-05  1.2606512331548094e-05  -1.5612893023600112e-03  3.0030070190738977e-06  2.1573491757448295e-05  3.3142956201659481e-06  1.3364011356954796e-05  6.4714433049438025e-02  -2.5266013154897109e-09  2.1004410167026392e-05  1.8027257790881031e-05  2.6894008746954628e-05  1.9680759075941655e-05  1.3346606510499427e-05  1.7180326854608088e-05  6.6729765240279974e-05  2.2470858077094496e-05  7.3577964545197336e-06  3.3463722769093717e-06  5.7629231354469484e-05  1.5761001048865520e-05  7.2506639860147090e-06  1.3695643130140531e-05  2.3894729303706524e-07  -3.2837167271709195e-07  -6.0414321524279736e-07  1.2234004105038705e-05  3.0782241544482730e-05  3.2873942344519197e-06  1.3803432374391661e-05  2.7035194933471249e-05  3.6252673846244331e-02  3.1001192000912669e-06  2.1156131157206754e-03  3.0800248509882137e-05  1.9672756773303718e-01  -4.5939335045451811e-08  5.0506508057611221e-07  -9.1634259658652266e-09  3.3124734111056272e-03  2.2903577048748842e-05  1.5014508657391063e-05  1.3911339401025321e-02  5.8198923578456196e-03  2.1747327206021836e-05  2.0227221793634329e-05  6.7712154595021997e-05  1.1848017007447371e-03  2.0555906934813574e-05  1.3115966495656355e-05  1.6226779218213608e-05  7.1688654103261193e-06  1.9358315572328280e-01  -2.2536785597790446e-03  2.7238951116805802e-04  -2.5767718507263926e-01  -5.5819440720602587e-01  -1.2200875888859087e-03  3.4884645392325845e-05  2.2226645082886368e-02  8.2835057427437603e-02  -8.0709184540275155e-10  1.8711559642012120e-07  -8.2419743554708602e-02  -2.1066397945698373e-01  2.0274834862112371e-05  2.7228815977848943e-05  2.8715489038374378e-09  1.4851992237226284e-07  1.8513817464629561e-07  -1.3214456490295496e-03  2.1008770279390584e-05  -6.1704902956530097e-02  -6.7487849225750074e-02  -4.9072154794393870e-03  1.2507298396943081e-05  1.2180657124839121e-02  9.1166153314904198e-09  5.0160704536290759e-07  1.5213159757722176e-05  1.4580222233590699e-06  2.3979941056457513e-05  -1.8084132992346656e-09  -7.4783943441665221e-08  2.7849400199539497e-05  3.1154521000222125e-06  2.7295610286456565e-05  -3.5956137033247302e-04  -1.1540188190849559e-05  -3.4383941230635967e-01  -2.5472480454537350e-01  -9.2239207891095857e-04  -6.1493507422365693e-07  3.0746807078143215e-05  3.0721021961252660e-05  -8.0380945674703500e-04  3.0656080956015233e-05  -1.2451761942803164e-02  -1.8910610154862895e-02  3.0790241960677177e-05  3.0770922435411880e-05  -1.4033601102202793e-04  -1.5510011224206859e-05  3.0724867589916324e-05  -1.6010461834045436e-01  -1.1745360816449643e-01  3.0771965237404999e-05  4.6760111275597262e-06  3.6689012962499329e-06  3.0799600427596322e-05  3.0751201782298550e-05  3.0678737590092228e-05  3.0731919777867396e-05  -2.7677561397301918e-06  -1.0425148652361952e-07  -1.3395141441972255e-08  5.8965461969537738e-08  1.5793298295521967e-08  1.6548461102897096e-06  3.4314692413532330e-05  2.6124800804070322e-05  -2.5539363307124135e-05  3.5927928873372885e-09  4.0257857385423427e-10  2.8626141628163707e-09  -5.5930594012803718e-03  -5.1404363467652558e-09  3.0851379291915055e-05  3.0709122440259978e-05  -5.0877924597125368e-01  -3.4687870574772110e-03  3.0247899932951181e-05  -5.6544156345664981e-02  -4.1431500536329990e-02  3.0657242991290617e-05  3.3703817980795381e-05  3.1670155496851418e-05  2.9509563212598571e-06  -8.5575877062771637e-03  8.1588366770810869e-02  2.2472235413256653e-03  4.9823637161660926e-03  2.1354532844767254e-05  1.9856458154554623e-05  2.8055284189041523e-05  2.7758553881943742e-05  4.6160909551208199e-07  2.0428408129139028e-02  2.3298837270706950e-04  2.2065635008334777e-05  3.0846515181909818e-06  7.9427972374025588e-06  2.7846439073872661e-06  5.2976421173606444e-02  4.6771466145548690e-07  2.1023941585657776e-05  7.8352059542696376e-02  1.4528970248653114e-01  2.1019565199648964e-05  2.9354824393508006e-01  3.3572678669426254e-06  8.0149831928524960e-04  2.1948043141216817e-06  4.3468287375633287e-09  -4.5048432642755930e-08  4.6486784807075543e-05  2.2494038819325784e-05  5.8589975226814493e-02  1.2082525268417482e-05  -3.1418893403699997e-07  -1.8831130350969147e-07  2.9726007801059405e-06  5.5992181024057752e-05  1.3608045529815841e-02  4.4106747007141497e-06  3.3451770946046446e-06  4.8214008702878508e-08  -1.1071883950252332e-07  2.3273576513915022e-07  1.3679848224778314e-05  -2.7468248563554966e-07  5.2390066145145274e-05  3.0005572879248239e-06  1.7119423168672755e-02  3.1228084779674451e-05  -2.4600354990304898e-05  2.9508145819157409e-06  2.9239194748452197e-07  9.9228923995652593e-06  -3.4225551908990482e-09  1.0931176245488321e-03  5.5242413681804202e-09  2.8726950288687062e-06  1.4329818883256266e-06  2.9278033368699214e-06  7.8773345782252573e-03  2.9814461103612453e-06  -2.0978857844180274e-09  3.3985852672129030e-06  -8.1783153769485848e-08  -4.1192577727840533e-08  3