<?xml version="1.0"?>
<VTKFile type="UnstructuredGrid"  version="0.1"  >
<UnstructuredGrid>
<Piece  NumberOfPoints="2555" NumberOfCells="4406">
<Points>
<DataArray  type="Float64"  NumberOfComponents="3"  format="ascii">-20 2 0  -20 0 0  -1 0 0  -0.9996988186962042 0.02454122852291233 0  -0.9987954562051724 0.04906767432741797 0  -0.9972904566786902 0.07356456359966773 0  -0.9951847266721968 0.09801714032956083 0  -0.99247953459871 0.1224106751992163 0  -0.989176509964781 0.1467304744553618 0  -0.9852776423889412 0.1709618887603012 0  -0.9807852804032304 0.1950903220161286 0  -0.9757021300385285 0.21910124015687 0  -0.970031253194544 0.2429801799032641 0  -0.9637760657954398 0.2667127574748985 0  -0.9569403357322088 0.2902846772544624 0  -0.9495281805930367 0.3136817403988914 0  -0.9415440651830207 0.3368898533922203 0  -0.9329927988347388 0.3598950365349883 0  -0.9238795325112867 0.3826834323650899 0  -0.9142097557035307 0.4052413140049899 0  -0.9039892931234433 0.427555093430282 0  -0.8932243011955152 0.4496113296546069 0  -0.8819212643483549 0.4713967368259979 0  -0.8700869911087113 0.4928981922297841 0  -0.857728610000272 0.5141027441932218 0  -0.8448535652497071 0.5349976198870972 0  -0.8314696123025453 0.5555702330196022 0  -0.8175848131515836 0.5758081914178454 0  -0.8032075314806448 0.5956993044924335 0  -0.7883464276266062 0.6152315905806269 0  -0.773010453362737 0.6343932841636455 0  -0.7572088465064846 0.6531728429537766 0  -0.7409511253549589 0.6715589548470186 0  -0.7242470829514668 0.6895405447370671 0  -0.7071067811865475 0.7071067811865476 0  -0.6895405447370669 0.7242470829514669 0  -0.6715589548470184 0.740951125354959 0  -0.6531728429537765 0.7572088465064847 0  -0.6343932841636454 0.7730104533627371 0  -0.6152315905806267 0.7883464276266063 0  -0.5956993044924334 0.8032075314806449 0  -0.5758081914178453 0.8175848131515837 0  -0.555570233019602 0.8314696123025455 0  -0.534997619887097 0.8448535652497072 0  -0.5141027441932217 0.8577286100002721 0  -0.492898192229784 0.8700869911087115 0  -0.4713967368259977 0.881921264348355 0  -0.4496113296546067 0.8932243011955152 0  -0.4275550934302819 0.9039892931234434 0  -0.4052413140049897 0.9142097557035307 0  -0.3826834323650897 0.9238795325112867 0  -0.3598950365349882 0.9329927988347388 0  -0.3368898533922199 0.9415440651830208 0  -0.3136817403988914 0.9495281805930367 0  -0.2902846772544622 0.9569403357322089 0  -0.2667127574748983 0.9637760657954398 0  -0.2429801799032639 0.970031253194544 0  -0.2191012401568697 0.9757021300385286 0  -0.1950903220161282 0.9807852804032304 0  -0.1709618887603012 0.9852776423889412 0  -0.1467304744553616 0.989176509964781 0  -0.1224106751992162 0.99247953459871 0  -0.09801714032956065 0.9951847266721969 0  -0.07356456359966733 0.9972904566786902 0  -0.04906767432741801 0.9987954562051724 0  -0.02454122852291214 0.9996988186962042 0  6.123233995736766e-17 1 0  0.02454122852291226 0.9996988186962042 0  0.04906767432741813 0.9987954562051724 0  0.07356456359966745 0.9972904566786902 0  0.09801714032956077 0.9951847266721968 0  0.1224106751992163 0.99247953459871 0  0.1467304744553617 0.989176509964781 0  0.1709618887603014 0.9852776423889412 0  0.1950903220161283 0.9807852804032304 0  0.2191012401568698 0.9757021300385286 0  0.242980179903264 0.970031253194544 0  0.2667127574748984 0.9637760657954398 0  0.2902846772544623 0.9569403357322089 0  0.3136817403988916 0.9495281805930367 0  0.3368898533922201 0.9415440651830208 0  0.3598950365349883 0.9329927988347388 0  0.3826834323650898 0.9238795325112867 0  0.4052413140049899 0.9142097557035307 0  0.4275550934302822 0.9039892931234433 0  0.4496113296546066 0.8932243011955153 0  0.4713967368259978 0.8819212643483549 0  0.4928981922297841 0.8700869911087113 0  0.5141027441932217 0.8577286100002721 0  0.5349976198870973 0.844853565249707 0  0.5555702330196023 0.8314696123025452 0  0.5758081914178453 0.8175848131515837 0  0.5956993044924335 0.8032075314806448 0  0.6152315905806268 0.7883464276266062 0  0.6343932841636455 0.773010453362737 0  0.6531728429537768 0.7572088465064845 0  0.6715589548470183 0.7409511253549591 0  0.6895405447370669 0.7242470829514669 0  0.7071067811865476 0.7071067811865475 0  0.724247082951467 0.6895405447370668 0  0.7409511253549591 0.6715589548470183 0  0.7572088465064846 0.6531728429537768 0  0.773010453362737 0.6343932841636455 0  0.7883464276266063 0.6152315905806268 0  0.8032075314806449 0.5956993044924334 0  0.8175848131515837 0.5758081914178453 0  0.8314696123025452 0.5555702330196022 0  0.8448535652497071 0.5349976198870972 0  0.8577286100002721 0.5141027441932217 0  0.8700869911087115 0.492898192229784 0  0.881921264348355 0.4713967368259976 0  0.8932243011955153 0.4496113296546065 0  0.9039892931234433 0.4275550934302821 0  0.9142097557035307 0.4052413140049899 0  0.9238795325112867 0.3826834323650898 0  0.932992798834739 0.3598950365349881 0  0.9415440651830208 0.3368898533922201 0  0.9495281805930367 0.3136817403988915 0  0.9569403357322088 0.2902846772544623 0  0.9637760657954398 0.2667127574748984 0  0.970031253194544 0.2429801799032639 0  0.9757021300385286 0.2191012401568698 0  0.9807852804032304 0.1950903220161282 0  0.9852776423889412 0.1709618887603012 0  0.989176509964781 0.1467304744553617 0  0.99247953459871 0.1224106751992162 0  0.9951847266721969 0.0980171403295606 0  0.9972904566786902 0.07356456359966743 0  0.9987954562051724 0.04906767432741801 0  0.9996988186962042 0.02454122852291229 0  1 0 0  20 0 0  20 2 0  0 2 0  -10 2 0  10 2 0  -10.5 0 0  -5 2 0  10.5 0 0  5 2 0  -15 2 0  -5.75 0 0  -2.5 2 0  15 2 0  5.75 0 0  2.5 2 0  -15.25 0 0  -3.375 0 0  15.25 0 0  3.375 0 0  -17.625 0 0  -17.5 2 0  17.5 2 0  17.625 0 0  8.125 0 0  7.5 2 0  12.875 0 0  12.5 2 0  -12.5 2 0  -12.875 0 0  -8.125 0 0  -7.5 2 0  -18.75 2 0  -18.8125 0 0  18.75 2 0  18.8125 0 0  16.4375 0 0  16.25 2 0  -16.25 2 0  -16.4375 0 0  13.75 2 0  -14.0625 0 0  -13.75 2 0  -11.6875 0 0  11.6875 0 0  -9.3125 0 0  8.75 2 0  -8.75 2 0  6.9375 0 0  6.25 2 0  -6.9375 0 0  -6.25 2 0  9.3125 0 0  11.25 2 0  -11.25 2 0  3.75 2 0  4.5625 0 0  -4.5625 0 0  -3.75 2 0  -1.25 2 0  1.25 2 0  14.0625 0 0  2.1875 0 0  -2.1875 0 0  -20 1 0  20 1 0  18.21875 0.982421875 0  -18.21875 0.982421875 0  16.875 1.0498046875 0  -17.03125 0.966796875 0  -15.84375 0.953125 0  15.625 1.0625 0  14.375 1.0732421875 0  -14.375 1.0732421875 0  1.830289387965117 1.052284088108649 0  -1.830289387965117 1.052284088108649 0  -3.125 1.08203125 0  -13.28477656888586 1.012129001112436 0  13.125 1.08203125 0  3.125 1.08203125 0  -4.375 1.0888671875 0  11.875 1.0888671875 0  -11.875 1.0888671875 0  4.203765290519877 1.0193030867737 0  -5.625 1.09375 0  5.625 1.09375 0  10.625 1.09375 0  -10.80634835916782 1.025744365312066 0  9.375 1.0966796875 0  -6.875 1.0966796875 0  -9.375 1.0966796875 0  6.684990875912408 1.03136405109489 0  -8.322099415573495 1.036062682633283 0  8.125 1.09765625 0  19.11075969939671 0.8508947319664032 0  -19.11075969939671 0.8508947319664032 0  -7.53125 0 0  8.71875 0 0  7.423362102206937 0.6655467048188293 0  9.90625 0 0  -6.34375 0 0  -10.07209987056368 0.6864155791813131 0  -5.15625 0 0  4.932893941568688 0.70313517104756 0  11.09375 0 0  -3.96875 0 0  12.28125 0 0  -12.56167362378033 0.7158719711052053 0  -15.12789358749343 1.239622257084254 0  19.375 2 0  -19.375 2 0  -7.586458743762512 0.7777256637040587 0  -8.876841588719831 0.5749490497356908 0  -2.78125 0 0  13.46875 0 0  2.486351124110562 0.6882204272146759 0  -2.484375 0.6875496078884429 0  13.765625 0.6685592193186988 0  6.127605163798639 0.5971727330055587 0  0.625 2 0  -0.625 2 0  -1.146535794159178 1.28513409566998 0  1.146535794159178 1.285134095669981 0  14.65625 0 0  14.953125 0.6512707752786624 0  -14.87682753143027 0.5890664696931456 0  12.578125 0.6384885491877257 0  -3.671875 0.6384885491877257 0  -15.625 2 0  -11.36675239212577 0.6158089665857418 0  15.00271470412651 1.324726469417674 0  17.53235848397354 0.7266244978817956 0  11.390625 0.6116981677410314 0  -4.859375 0.6116981677410314 0  15.84375 0 0  16.140625 0.6148897058823529 0  7.497593266890831 1.330710907262048 0  13.76254792112057 1.334335181755445 0  -10.20969602084016 1.352738855957021 0  17.03125 0 0  3.639986821556412 0.6311208834101457 0  -2.422032960990368 1.344610008595471 0  -1.875 2 0  2.42168763602468 1.344854035092462 0  1.875 2 0  -6.046875 0.5879464285714285 0  10.203125 0.5879464285714285 0  4.785027294216357 1.360955117010924 0  -16.43327865604348 1.32661481258014 0  -16.44139997701004 0.663326532427168 0  -12.71719161438206 1.366886164755866 0  9.015625 0.567039754702805 0  -13.85227446991684 0.6433291643838606 0  17.68435132148515 1.367585767263021 0  -8.125 2 0  -7.779164034427432 1.405551895778211 0  6.875 2 0  -16.875 2 0  16.25211206745888 1.264109755085799 0  -3.748868614850469 1.292331074664245 0  12.50113138514953 1.292331074664245 0  -4.999425840599162 1.238293400364507 0  11.25057415940084 1.238293400364507 0  10.00021284174179 1.186027320246887 0  -6.249787158258211 1.186027320246887 0  8.750028772491092 1.133996757348608 0  8.125 2 0  -9.375 2 0  -6.875 2 0  9.375 2 0  10.625 2 0  5.625 2 0  -5.625 2 0  -11.875 2 0  11.875 2 0  -4.375 2 0  3.125 2 0  13.125 2 0  -14.375 2 0  14.375 2 0  15.625 2 0  -18.125 2 0  16.875 2 0  -3.125 2 0  -10.625 2 0  4.375 2 0  -13.125 2 0  18.125 2 0  -17.62042339570457 1.322431301452557 0  -17.64048254773117 0.661277151197267 0  -1.59375 0 0  1.59375 0 0  -19.40625 0 0  19.40625 0 0  20 0.5 0  19.0625 1.466926268772181 0  -18.7305243036722 1.362703047674974 0  -5.451064633443578 0.5209722999527524 0  10.79893536655642 0.5209722999527524 0  9.610417111950763 0.5183010867631196 0  -13.46875 0 0  3.96875 0 0  -11.09375 0 0  6.34375 0 0  2.78125 0 0  -8.71875 0 0  -12.28125 0 0  5.15625 0 0  -9.90625 0 0  7.53125 0 0  -15.84375 0 0  -17.03125 0 0  -18.21875 0 0  18.21875 0 0  -14.65625 0 0  20 1.5 0  -19.48071156660626 1.370757229128913 0  -20 0.5 0  -4.24552725411087 0.5169543671041
[...]
<PointData  Scalars="f_823515"> 
<DataArray  type="Float64"  Name="f_823515"  format="ascii">1.0011433065222992e+00  9.9998727137642240e-01  9.9632512258062178e-01  9.9058764103684682e-01  9.9426297446043588e-01  9.9161442832235669e-01  9.9031895001607884e-01  9.8447803938850353e-01  9.8237648517370335e-01  9.7260132849314740e-01  9.6357912273533930e-01  9.6681498201056637e-01  9.5551778804842291e-01  9.4531889362186594e-01  9.3795120767428164e-01  9.2760265735388858e-01  9.1764963666304955e-01  9.0426462669367247e-01  8.9180427186742839e-01  8.7635620335897702e-01  8.6661032263466509e-01  8.5207768531386541e-01  8.3713427501898474e-01  8.2037166483215884e-01  8.0917794607596449e-01  7.9244568809153071e-01  7.7977825307566817e-01  7.6249805551604266e-01  7.5068614816324697e-01  7.3632740621490878e-01  7.2320491304845325e-01  7.1086322318250317e-01  6.9740756264203230e-01  6.8685521852743892e-01  6.7615978704522939e-01  6.7117416295964549e-01  6.6068912098358212e-01  6.6192416028951018e-01  6.5785254626692735e-01  6.6102720699747142e-01  6.6575357413429825e-01  6.7100600467375027e-01  6.8423475103222731e-01  6.9823891492799095e-01  7.1783979422503952e-01  7.4590620473252522e-01  7.8322594027845138e-01  8.0815870401373668e-01  8.6611945918959077e-01  9.1528805252997802e-01  9.7528247135020085e-01  1.0332750655795382e+00  1.1206042241353302e+00  1.2112934822230030e+00  1.2935050105621242e+00  1.3918936662272745e+00  1.4918894654430597e+00  1.6077678994141349e+00  1.7510891346979867e+00  1.8881442368430505e+00  2.0007768416953629e+00  2.1905401107066194e+00  2.3399784136801318e+00  2.4460945221016281e+00  2.6550186317265494e+00  2.8223150645335742e+00  2.9103291443015031e+00  3.0313497706076551e+00  3.0902357360478407e+00  3.2995473587758921e+00  3.4413965564125579e+00  3.4986011943487605e+00  3.5852265715152933e+00  3.7396527737152909e+00  3.8160628025044332e+00  3.8265154151849505e+00  3.8599004205950544e+00  3.9430415823054799e+00  3.7815526410013196e+00  3.8407210110171528e+00  3.7932251483884580e+00  3.8127346835861844e+00  3.7329148138944230e+00  3.6164788001260324e+00  3.5866865007234785e+00  3.5127658572321931e+00  3.3863180922825591e+00  3.2622756699189743e+00  3.1206225347775125e+00  3.0308173796904159e+00  2.9443456344880823e+00  2.8258087256976712e+00  2.7137121509125870e+00  2.6302379376223972e+00  2.5308509416150362e+00  2.4191772258877871e+00  2.2966794828582913e+00  2.1976896115008313e+00  2.1231825825333104e+00  2.0364411730320930e+00  1.9419779266863155e+00  1.8720500858790121e+00  1.8046986002730341e+00  1.7387447624149035e+00  1.6707765579235412e+00  1.6079315144227246e+00  1.5544779150679369e+00  1.5101643913227787e+00  1.4530086656979375e+00  1.4081654670104291e+00  1.3668957423685162e+00  1.3168751358982775e+00  1.2810669955341187e+00  1.2525324395701587e+00  1.2178253791962572e+00  1.1907223842654893e+00  1.1634483994861009e+00  1.1360839330023114e+00  1.1153969873250646e+00  1.0973989214176256e+00  1.0788787403478084e+00  1.0635459037692025e+00  1.0499081522335443e+00  1.0392672786538555e+00  1.0265756691392836e+00  1.0208639972495452e+00  1.0145407125361627e+00  1.0098422964306335e+00  1.0079977740834034e+00  1.0102171432984655e+00  1.0039048130090062e+00  1.0000000338117583e+00  9.9999998935491463e-01  1.3770449513533503e+00  1.0000000058027556e+00  1.0000000042658632e+00  9.9999998946840052e-01  1.0001316187178890e+00  9.9999999545820939e-01  9.9973353366362749e-01  9.9999941282541793e-01  9.9985934236929885e-01  1.0172864684297072e+00  1.0000000023504181e+00  1.0001907776186583e+00  9.7823961012670091e-01  1.0000030581700814e+00  9.8835015510620705e-01  9.9999999817045537e-01  1.0160163489134557e+00  1.0001432131554324e+00  9.9993900351327025e-01  9.9999999460438060e-01  1.0000000407679104e+00  1.0000007563409310e+00  9.9999909170556678e-01  1.0000000013478845e+00  9.9999999764258152e-01  9.9999999709403464e-01  1.0000000225240235e+00  9.9999892210993246e-01  1.0000007944472349e+00  9.9974778635534134e-01  1.0001473929834548e+00  1.0000000065685160e+00  1.0000000105211979e+00  9.9999999021123198e-01  1.0000000029560987e+00  9.9999252328580979e-01  1.0000273395499208e+00  9.9999999780361704e-01  1.0000002668027153e+00  9.9999996105023170e-01  1.0000000003097895e+00  9.9999999562763497e-01  9.9999991265607791e-01  9.9999998004823043e-01  1.0000000571583634e+00  1.0000155178306132e+00  9.9998341344982156e-01  9.9998786147489316e-01  1.0000099270091920e+00  1.0000000286104429e+00  1.0000000019951711e+00  1.0000000016340940e+00  9.9676972640496087e-01  1.0022078018149552e+00  9.9854534998172806e-01  1.0017525394269999e+00  1.1231967873988171e+00  9.7513248508622863e-01  1.0000000040264236e+00  1.0948773572857990e+00  9.3329452150134995e-01  1.0002280324066537e+00  9.9999996197210939e-01  1.0000000064943531e+00  1.0000042958429185e+00  9.9999999968595044e-01  9.9998892611077972e-01  9.9999821766483943e-01  9.9999999607407764e-01  1.0000000002498568e+00  9.9999979427472807e-01  9.7706731532378632e-01  1.0371772076645775e+00  1.0079324788387101e+00  9.9999998334971696e-01  9.9999999977748644e-01  9.9205674619570727e-01  1.0009704261402168e+00  1.0000000041888621e+00  9.9999999909838821e-01  9.9878515947271285e-01  1.0000850004942166e+00  9.9990192233514419e-01  1.0000000008231149e+00  1.0000000023011326e+00  9.9999998728838302e-01  1.0000056288811188e+00  1.0000000358872849e+00  9.9999071396307548e-01  1.0000002933643080e+00  9.9999964410247233e-01  9.9999998048700189e-01  1.0001206551325099e+00  9.9999597851862509e-01  1.0000001774510541e+00  1.0000002790140490e+00  1.0000000029485530e+00  9.9995654709597281e-01  9.9999999820399355e-01  9.9952193147486479e-01  1.0000871441530590e+00  9.9999999571616094e-01  9.9570839283580603e-01  1.0000000098295643e+00  1.0000000001908054e+00  9.9999880202224367e-01  1.0000000041302357e+00  1.0000548956536988e+00  1.0000002495873765e+00  9.9999996236323074e-01  9.7110063214679709e-01  1.0000000006995182e+00  1.0187618437873611e+00  9.9100198873808631e-01  9.9999999825275032e-01  1.0000195367426825e+00  1.1447402825896626e+00  1.2897610391966805e+00  1.1395821775825126e+00  9.5851130965180398e-01  1.0000000057700380e+00  1.0000000018618498e+00  1.0000004635407151e+00  9.9999999926117022e-01  9.9845098514367236e-01  9.9999760648539870e-01  9.9999999884763202e-01  9.9999999906488102e-01  1.0000000159983429e+00  9.9999999882104462e-01  9.9983448282448251e-01  9.9999999427122788e-01  9.9999999762437342e-01  9.9999812289319245e-01  1.0000000012183288e+00  1.0000000093235284e+00  9.9999999316930188e-01  1.0029677400937520e+00  1.0325847409040678e+00  1.0596564406942814e+00  9.6433148956485781e-01  9.5630004615556552e-01  9.9998106453117364e-01  9.9999999907500503e-01  9.9929605104038777e-01  9.9998517802673081e-01  1.0000065317561038e+00  9.9999999273790185e-01  1.0000000031708625e+00  1.0000000300060807e+00  9.9999999767558478e-01  1.0000001702586563e+00  1.0000009766990101e+00  9.9999627121381862e-01  9.9997498130791640e-01  1.0000000020799193e+00  1.0035487441075217e+00  9.9999999787303218e-01  1.0003180096249196e+00  1.0000000013164869e+00  9.9999999859944944e-01  1.0000253995522821e+00  9.9999992065835575e-01  9.9999986798183749e-01  1.0000000159030151e+00  1.0000031217166292e+00  9.9999999908910098e-01  1.0000000023202527e+00  9.9993005757025344e-01  1.0000414592454676e+00  9.9999999937845718e-01  1.0000000025278033e+00  1.0005637231446849e+00  9.9147132585455733e-01  1.0000000020546731e+00  9.9999983230437650e-01  1.0000000002846690e+00  1.0000000023204532e+00  9.9984217707294176e-01  9.9999999942164153e-01  1.0061388228438120e+00  1.0000000020296314e+00  9.9909328853624846e-01  9.9999998840820359e-01  9.9999999862054778e-01  9.9990950949882762e-01  1.0000580719340926e+00  8.8202679857725219e-01  1.1623228777622285e+00  9.9964838871847794e-01  9.9999995708795608e-01  9.9999997532097906e-01  9.9999997317605638e-01  9.9984528174470866e-01  9.9988757896254810e-01  9.9999999763572811e-01  9.9999999968042441e-01  1.0000000678824432e+00  1.0058611591184257e+00  9.9999999596130651e-01  1.0000548022004057e+00  1.0400650673058578e+00  9.9999967962372949e-01  1.0000000055576301e+00  1.0006599426578504e+00  9.9999997043857336e-01  1.0000036244188968e+00  1.0000094242944004e+00  1.0000688732497205e+00  1.0002386301536670e+00  9.9999998205952767e-01  1.0000009384354787e+00  9.9999997461031054e-01  1.0003948538473602e+00  1.0000501044680798e+00  9.9869859713510278e-01  1.0000000031246175e+00  1.0000000010299444e+00  1.0001958600729035e+00  1.0000000106377662e+00  9.9999998217148300e-01  9.9999999460038336e-01  9.9999999733586897e-01  9.8953023044087807e-01  1.0133765108458084e+00  9.2868120318596281e-01  1.1399416726595224e+00  9.9999999745130930e-01  1.0000030947330572e+00  9.9999988737086820e-01  1.0000000041028758e+00  9.9284826810525628e-01  1.0752921467713064e+00  1.2142669383554108e+00  1.0000000006424488e+00  9.9999999801081696e-01  9.9978416642054324e-01  1.0001267960380003e+00  9.9994516945263845e-01  1.0000028429785621e+00  9.9999129631153505e-01  1.0000000154703597e+00  9.9999998162346482e-01  1.0000000566052587e+00  1.0000001185883938e+00  1.0000000210562694e+00  9.9999996249247236e-01  1.0019845364989561e+00  9.9677805469208880e-01  9.9999999613233059e-01  1.0000000027769971e+00  9.9999951823432887e-01  9.9999456251330421e-01  9.9999989139757006e-01  9.9999998605079277e-01  1.0000129189886446e+00  9.9998241336434590e-01  9.9999973263371522e-01  1.0000001550067927e+00  9.9999998053810923e-01  9.9999387502451154e-01  9.9995560464829614e-01  1.0000000042441308e+00  1.0000000035040897e+00  1.0000098618902102e+00  1.0000379021117136e+00  1.0000000024186164e+00  1.0000001746586871e+00  9.9980628680859396e-01  1.1047279100186049e+00  9.0727694241769763e-01  1.0750917941254823e+00  9.9999641113852267e-01  9.6497175556277004e-01  1.0007823844779025e+00  1.0000000137187555e+00  1.0000000886650913e+00  1.0000000025682820e+00  1.0001166834021418e+00  1.0000000603820409e+00  1.0004656200352453e+00  9.9999999952917673e-01  1.0000000017488937e+00  9.9996535962373478e-01  1.0001592554020633e+00  1.0000000047213891e+00  1.0000000009461694e+00  1.0000322805595387e+00  9.7870212495017106e-01  1.0148293479335160e+00  1.0000000004184588e+00  9.9999996050010531e-01  9.9973648663942016e-01  9.9999996949183267e-01  1.0000000002601546e+00  1.0014016310375458e+00  1.0050475936067189e+00  9.9999999517489158e-01  9.9601327953151275e-01  9.9999956258213940e-01  9.9999999769069803e-01  9.9999993031158518e-01  1.0000000003693583e+00  9.9999999959862140e-01  1.0000063796698417e+00  9.9999999730845046e-01  9.9999780112101211e-01  9.9987659953780117e-01  9.9999659768315918e-01  1.0639741103051954e+00  9.3458989105835899e-01  1.2076113398325294e+00  9.2868371305109687e-01  1.0000000188178289e+00  9.9971721967537441e-01  9.9999992796166381e-01  1.0000614693583894e+00  1.0000000126271171e+00  9.9999940134252763e-01  9.9999999183974486e-01  1.0000825618601616e+00  1.0000118590945120e+00  1.1259945859525939e+00  1.0956968094451178e+00  1.0000000013060384e+00  1.0000000041072672e+00  1.0000839784734028e+00  1.0000000014001931e+00  9.9990620038247380e-01  9.9999970916579073e-01  1.0011607277220063e+00  1.0000000006277665e+00  1.0000000052677598e+00  1.0000061629969019e+00  1.0000709809684991e+00  9.9833876086041273e-01  1.0000000106347104e+00  1.0000027882557596e+00  9.9999998603059470e-01  1.0000000045918194e+00  9.9999998369483867e-01  9.9999999171197140e-01  9.9997670776418035e-01  9.9999914243102628e-01  1.0008166535473968e+00  9.9947960284969117e-01  1.0011190196108031e+00  1.0011188677256007e+00  9.9999999870923617e-01  1.0289633486157637e+00  9.9999999430770548e-01  1.0000000111568768e+00  1.0001129015902879e+00  1.0000003681505414e+00  9.9999826276893944e-01  1.0000005410043249e+00  9.9999999369962012e-01  9.9999958908344111e-01  9.9999909619177696e-01  1.0000000157605446e+00  1.1630952915309671e+00  1.0000000038084642e+00  1.0000000040174157e+00  1.0000076726889637e+00  1.0000003364477776e+00  9.9999999745486168e-01  9.9952486726708156e-01  1.0000003063094798e+00  1.0000016438337560e+00  1.0131858842988510e+00  9.8729955400925185e-01  1.0594271701858493e+00  1.0333933416691581e+00  1.0130045895188893e+00  1.0000000591649727e+00  9.7510367297348122e-01  9.5572411893427089e-01  1.0198067475907635e+00  9.8287366932463704e-01  9.9999822488346146e-01  9.9999688875547987e-01  1.0003876921012578e+00  9.9999800223157964e-01  1.0000000026231837e+00  9.9999930951104243e-01  9.6033215582483500e-01  1.0367979260306479e+00  1.0000000124158936e+00  9.9999999443146359e-01  9.9999999882522017e-01  1.0000000000750375e+00  9.9999999614863533e-01  9.9997262157491784e-01  9.5134599926785257e-01  1.0000000142572214e+00  9.9999991913562758e-01  1.0000000427818543e+00  9.9999995263416186e-01  9.9999997945881924e-01  9.9972877138193394e-01  1.0000000252630004e+00  9.9949646487138866e-01  9.9999356720579657e-01  1.0002352495067914e+00  1.0000000011314021e+00  1.0000000031036538e+00  1.0000000025230296e+00  1.0000000344880144e+00  1.0046800094549537e+00  1.0005677172402250e+00  1.0027328303886347e+00  1.0000000005197749e+00  9.9999806634370048e-01  1.0001112586060152e+00  9.9999354554816589e-01  9.9986543186343957e-01  9.9651242095276649e-01  1.0000000022324105e+00  1.0000000007668282e+00  9.9185332242608581e-01  9.9941917798635904e-01  9.9999999553901897e-01  1.0000000207586723e+00  9.9999999958790953e-01  9.9999023005707521e-01  9.9999258211674324e-01  1.0000019263878419e+00  1.0000285389302184e+00  9.9997779881845850e-01  9.9994538132145461e-01  9.9999999915047078e-01  9.9999999944833862e-01  1.0000000003090794e+00  9.1426578112500312e-01  9.1734678841419315e-01  1.0000000035504293e+00  1.0002012098785347e+00  1.0001418618980598e+00  9.9988788915350513e-01  9.9992667245699418e-01  1.0000000007012511e+00  1.0003568432257925e+00  1.0036791130419205e+00  1.0000177533147792e+00  1.0015171758755961e+00  1.0097187838330430e+00  1.0000000048609865e+00  9.9999999961297370e-01  9.9999999891560609e-01  9.9999999507928372e-01  9.9999999037725906e-01  1.0000007082287035e+00  9.9999985923552070e-01  9.9908026690321239e-01  1.0000000083210601e+00  1.0000000001936897e+00  1.0000034669086337e+00  1.0000000024016136e+00  9.9999999545818496e-01  9.9901087502638752e-01  9.9916352145861298e-01  9.9968281419752913e-01  9.9999999641319737e-01  1.0000155876191332e+00  1.0000163185806263e+00  1.0000000013768822e+00  1.0003599532593062e+00  1.0000001349549896e+00  9.9999997461097134e-01  9.9999999916096116e-01  1.0000000046645157e+00  9.9961006849513423e-01  1.0000000215163187e+00  1.0002236887733928e+00  1.0000473039448725e+00  9.9996235568691438e-01  1.0000017074669103e+00  9.9999999726688660e-01  1.0000000070864308e+00  9.9999999606187329e-01  9.9999998899438247e-01  9.9999997686582509e-01  1.0000001395801765e+00  1.0000000813907806e+00  9.9999999927714356e-01  1.0000000042763759e+00  9.9999827635685579e-01  1.0005620392137333e+00  1.0000004015975448e+00  1.0000000026182423e+00  9.9999999452782773e-01  9.9999999665708006e-01  9.6262127189505509e-01  9.9999999865582212e-01  1.0000000083673592e+00  9.9999999712260834e-01  9.9999999930569006e-01  1.0000000038244983e+00  9.9999999756900348e-01  9.9999999893277325e-01  1.0000028259056553e+00  1.0000309417685107e+00  9.9999999750663138e-01  9.9999999965385233e-01  9.9990594481581418e-01  9.9992249711209680e-01  1.0000000003101281e+00  9.9997004839328585e-01  1.0000010836296387e+00  1.0000006043626712e+00  1.0000010955331815e+00  1.0000000206092647e+00  1.0000000002963638e+00  1.0000000038401442e+00  9.9999996296693150e-01  1.0057944696867964e+00  9.9999999990740374e-01  9.9266691950972497e-01  1.0000000043182860e+00  1.1631935669894409e+00  1.0000138269857051e+00  1.0000016597210564e+00  9.9999999915933246e-01  1.0089492029935723e+00  9.9999999888884350e-01  9.9999996462764351e-01  8.7643557580362863e-01  1.1665217650116688e+00  1.0000000010381249e+00  1.0000000025263349e+00  1.0001734976536687e+00  1.0018041093684111e+00  9.9999999937992645e-01  9.9999998796711587e-01  9.9999996501920074e-01  1.0000000172998436e+00  1.0439742175309503e+00  1.0002636701902698e+00  9.9988291279771335e-01  1.1930235270385812e+00  1.2732028645662254e+00  9.9975417387706444e-01  1.0000366201346409e+00  1.1259689524654879e+00  1.1371806784308733e+00  9.9999999820767427e-01  1.0000000109630327e+00  1.0000000970463134e+00  1.2345296441551452e+00  1.0007080873697971e+00  9.9999982076549410e-01  9.9999310716624623e-01  1.0000000031334850e+00  1.0000005348320380e+00  1.0000002738360798e+00  9.9797403459539080e-01  9.9999999660458139e-01  8.9539051901671274e-01  1.1520288613166130e+00  9.8800712283203918e-01  1.0000000043317074e+00  9.8111480631415282e-01  9.9999997714471422e-01  1.0000006230605423e+00  9.9999998886006070e-01  9.9999972013797622e-01  9.9999997812292096e-01  9.9999998357619679e-01  9.9999793374446788e-01  9.9999912167382088e-01  1.0000000016898714e+00  9.9999999862571920e-01  1.0000000007190435e+00  9.9980759792137985e-01  9.9998710619837228e-01  1.0363090078014621e+00  1.1941863008185414e+00  9.9983013360803674e-01  9.9999875508128688e-01  9.9999999804279871e-01  1.0000000014968242e+00  1.0036648157368580e+00  1.0010168441445626e+00  9.9999999787001081e-01  1.0102144353449989e+00  9.8491835334050737e-01  1.0000000007236349e+00  1.0000000042101582e+00  1.0003078736865738e+00  1.0000741456666888e+00  1.0000000001727567e+00  9.5744400673767760e-01  1.0884427394721874e+00  1.0000000057585714e+00  1.0000231893163170e+00  1.0000050211230982e+00  1.0000000040528483e+00  1.0000000004931509e+00  9.9999999730194888e-01  9.9999992703739571e-01  9.9999601983427933e-01  9.9999969734763339e-01  1.0000000365083417e+00  1.0000000320201674e+00  1.0000000082496587e+00  1.0000013153887000e+00  9.9987855403980763e-01  9.9997058648843384e-01  9.9986614272716690e-01  9.9999999804305817e-01  9.9999999936795869e-01  1.0000000010675947e+00  9.9507336022185611e-01  9.9999992788086356e-01  9.9999998846944294e-01  1.0000000162241867e+00  1.3544674865129971e+00  9.9999998617496910e-01  9.6560195489599177e-01  1.0316355998368234e+00  9.9998961129762376e-01  1.0000000020617821e+00  9.9999970537909044e-01  1.0000000162775107e+00  1.0210980599309440e+00  1.0857293554426044e+00  1.0003804781700265e+00  9.8056562491038757e-01  1.0000302660174378e+00  9.9999996352113041e-01  9.9999998978865834e-01  9.9999999214105373e-01  1.0000038627588062e+00  9.9771651745583700e-01  1.0007732523228603e+00  1.0000000009001906e+00  9.9997600934499586e-01  9.9999999676526419e-01  1.0000000038664503e+00  1.1940282829107904e+00  9.9999996386019685e-01  9.9999999886229363e-01  8.7414751840319915e-01  8.9715770349895396e-01  9.9999996643162525e-01  1.1588516084313061e+00  1.0000000046854312e+00  9.9741127991959078e-01  9.9999014916334195e-01  1.0000000033783212e+00  9.9999980011341560e-01  9.9994690145906007e-01  1.0000000007702248e+00  9.8895693265445606e-01  9.9999999861959943e-01  9.9999875471863975e-01  9.9999999269442008e-01  9.9973166875734820e-01  9.5478388404374703e-01  1.0000072412660577e+00  1.0000000093118582e+00  9.9999968418533480e-01  9.9999980392762500e-01  1.0000005257620617e+00  9.9999990141361139e-01  1.0000007593893221e+00  1.0002454833482182e+00  9.9999999867433076e-01  1.0094500658586936e+00  9.9999983794238057e-01  1.0609646243306590e+00  9.9999943857225060e-01  1.0001015292469873e+00  9.9996845403973211e-01  9.9999998456234651e-01  1.0000000076708195e+00  9.9999304872936767e-01  1.0000286219485668e+00  9.9999999311448073e-01  1.0036068399173570e+00  1.0000000379835405e+00  1.0000000035116789e+00  1.0000052317898043e+00  9.9999999475100376e-01  1.0271082663880868e+00  9.9999999231666492e-01  1.0000000025999938e+00  1.0001024869370494e+00  1.0000017892288926e+00  1.0000001309122426e+00  9.8845283437117437e-01  1.0010502869349849e+00  9.8641448006023957e-01  1.0000608566242104e+00  1.0173617730678295e+00  1.0564308821766175e+00  9.982165710