<?xml version="1.0"?>
<VTKFile type="UnstructuredGrid"  version="0.1"  >
<UnstructuredGrid>
<Piece  NumberOfPoints="1349" NumberOfCells="2290">
<Points>
<DataArray  type="Float64"  NumberOfComponents="3"  format="ascii">-20 2 0  -20 0 0  -1 0 0  -0.9996988186962042 0.02454122852291233 0  -0.9987954562051724 0.04906767432741797 0  -0.9972904566786902 0.07356456359966773 0  -0.9951847266721968 0.09801714032956083 0  -0.99247953459871 0.1224106751992163 0  -0.989176509964781 0.1467304744553618 0  -0.9852776423889412 0.1709618887603012 0  -0.9807852804032304 0.1950903220161286 0  -0.9757021300385285 0.21910124015687 0  -0.970031253194544 0.2429801799032641 0  -0.9637760657954398 0.2667127574748985 0  -0.9569403357322088 0.2902846772544624 0  -0.9495281805930367 0.3136817403988914 0  -0.9415440651830207 0.3368898533922203 0  -0.9329927988347388 0.3598950365349883 0  -0.9238795325112867 0.3826834323650899 0  -0.9142097557035307 0.4052413140049899 0  -0.9039892931234433 0.427555093430282 0  -0.8932243011955152 0.4496113296546069 0  -0.8819212643483549 0.4713967368259979 0  -0.8700869911087113 0.4928981922297841 0  -0.857728610000272 0.5141027441932218 0  -0.8448535652497071 0.5349976198870972 0  -0.8314696123025453 0.5555702330196022 0  -0.8175848131515836 0.5758081914178454 0  -0.8032075314806448 0.5956993044924335 0  -0.7883464276266062 0.6152315905806269 0  -0.773010453362737 0.6343932841636455 0  -0.7572088465064846 0.6531728429537766 0  -0.7409511253549589 0.6715589548470186 0  -0.7242470829514668 0.6895405447370671 0  -0.7071067811865475 0.7071067811865476 0  -0.6895405447370669 0.7242470829514669 0  -0.6715589548470184 0.740951125354959 0  -0.6531728429537765 0.7572088465064847 0  -0.6343932841636454 0.7730104533627371 0  -0.6152315905806267 0.7883464276266063 0  -0.5956993044924334 0.8032075314806449 0  -0.5758081914178453 0.8175848131515837 0  -0.555570233019602 0.8314696123025455 0  -0.534997619887097 0.8448535652497072 0  -0.5141027441932217 0.8577286100002721 0  -0.492898192229784 0.8700869911087115 0  -0.4713967368259977 0.881921264348355 0  -0.4496113296546067 0.8932243011955152 0  -0.4275550934302819 0.9039892931234434 0  -0.4052413140049897 0.9142097557035307 0  -0.3826834323650897 0.9238795325112867 0  -0.3598950365349882 0.9329927988347388 0  -0.3368898533922199 0.9415440651830208 0  -0.3136817403988914 0.9495281805930367 0  -0.2902846772544622 0.9569403357322089 0  -0.2667127574748983 0.9637760657954398 0  -0.2429801799032639 0.970031253194544 0  -0.2191012401568697 0.9757021300385286 0  -0.1950903220161282 0.9807852804032304 0  -0.1709618887603012 0.9852776423889412 0  -0.1467304744553616 0.989176509964781 0  -0.1224106751992162 0.99247953459871 0  -0.09801714032956065 0.9951847266721969 0  -0.07356456359966733 0.9972904566786902 0  -0.04906767432741801 0.9987954562051724 0  -0.02454122852291214 0.9996988186962042 0  6.123233995736766e-17 1 0  0.02454122852291226 0.9996988186962042 0  0.04906767432741813 0.9987954562051724 0  0.07356456359966745 0.9972904566786902 0  0.09801714032956077 0.9951847266721968 0  0.1224106751992163 0.99247953459871 0  0.1467304744553617 0.989176509964781 0  0.1709618887603014 0.9852776423889412 0  0.1950903220161283 0.9807852804032304 0  0.2191012401568698 0.9757021300385286 0  0.242980179903264 0.970031253194544 0  0.2667127574748984 0.9637760657954398 0  0.2902846772544623 0.9569403357322089 0  0.3136817403988916 0.9495281805930367 0  0.3368898533922201 0.9415440651830208 0  0.3598950365349883 0.9329927988347388 0  0.3826834323650898 0.9238795325112867 0  0.4052413140049899 0.9142097557035307 0  0.4275550934302822 0.9039892931234433 0  0.4496113296546066 0.8932243011955153 0  0.4713967368259978 0.8819212643483549 0  0.4928981922297841 0.8700869911087113 0  0.5141027441932217 0.8577286100002721 0  0.5349976198870973 0.844853565249707 0  0.5555702330196023 0.8314696123025452 0  0.5758081914178453 0.8175848131515837 0  0.5956993044924335 0.8032075314806448 0  0.6152315905806268 0.7883464276266062 0  0.6343932841636455 0.773010453362737 0  0.6531728429537768 0.7572088465064845 0  0.6715589548470183 0.7409511253549591 0  0.6895405447370669 0.7242470829514669 0  0.7071067811865476 0.7071067811865475 0  0.724247082951467 0.6895405447370668 0  0.7409511253549591 0.6715589548470183 0  0.7572088465064846 0.6531728429537768 0  0.773010453362737 0.6343932841636455 0  0.7883464276266063 0.6152315905806268 0  0.8032075314806449 0.5956993044924334 0  0.8175848131515837 0.5758081914178453 0  0.8314696123025452 0.5555702330196022 0  0.8448535652497071 0.5349976198870972 0  0.8577286100002721 0.5141027441932217 0  0.8700869911087115 0.492898192229784 0  0.881921264348355 0.4713967368259976 0  0.8932243011955153 0.4496113296546065 0  0.9039892931234433 0.4275550934302821 0  0.9142097557035307 0.4052413140049899 0  0.9238795325112867 0.3826834323650898 0  0.932992798834739 0.3598950365349881 0  0.9415440651830208 0.3368898533922201 0  0.9495281805930367 0.3136817403988915 0  0.9569403357322088 0.2902846772544623 0  0.9637760657954398 0.2667127574748984 0  0.970031253194544 0.2429801799032639 0  0.9757021300385286 0.2191012401568698 0  0.9807852804032304 0.1950903220161282 0  0.9852776423889412 0.1709618887603012 0  0.989176509964781 0.1467304744553617 0  0.99247953459871 0.1224106751992162 0  0.9951847266721969 0.0980171403295606 0  0.9972904566786902 0.07356456359966743 0  0.9987954562051724 0.04906767432741801 0  0.9996988186962042 0.02454122852291229 0  1 0 0  20 0 0  20 2 0  0 2 0  -10 2 0  10 2 0  -10.5 0 0  -5 2 0  10.5 0 0  5 2 0  -15 2 0  -5.75 0 0  -2.5 2 0  15 2 0  5.75 0 0  2.5 2 0  -15.25 0 0  -3.375 0 0  15.25 0 0  3.375 0 0  -17.625 0 0  -17.5 2 0  17.5 2 0  17.625 0 0  8.125 0 0  7.5 2 0  12.875 0 0  12.5 2 0  -12.5 2 0  -12.875 0 0  -8.125 0 0  -7.5 2 0  -18.75 2 0  -18.8125 0 0  18.75 2 0  18.8125 0 0  16.4375 0 0  16.25 2 0  -16.25 2 0  -16.4375 0 0  13.75 2 0  -14.0625 0 0  -13.75 2 0  -11.6875 0 0  11.6875 0 0  -9.3125 0 0  8.75 2 0  -8.75 2 0  6.9375 0 0  6.25 2 0  -6.9375 0 0  -6.25 2 0  9.3125 0 0  11.25 2 0  -11.25 2 0  3.75 2 0  4.5625 0 0  -4.5625 0 0  -3.75 2 0  -1.25 2 0  1.25 2 0  14.0625 0 0  2.1875 0 0  -2.1875 0 0  -20 1 0  20 1 0  18.21875 0.982421875 0  -18.21875 0.982421875 0  16.875 1.0498046875 0  -17.03125 0.966796875 0  -15.84375 0.953125 0  15.625 1.0625 0  14.375 1.0732421875 0  -14.375 1.0732421875 0  1.830289387965117 1.052284088108649 0  -1.830289387965117 1.052284088108649 0  -3.125 1.08203125 0  -13.28477656888586 1.012129001112436 0  13.125 1.08203125 0  3.125 1.08203125 0  -4.375 1.0888671875 0  11.875 1.0888671875 0  -11.875 1.0888671875 0  4.203765290519877 1.0193030867737 0  -5.625 1.09375 0  5.625 1.09375 0  10.625 1.09375 0  -10.80634835916782 1.025744365312066 0  9.375 1.0966796875 0  -6.875 1.0966796875 0  -9.375 1.0966796875 0  6.684990875912408 1.03136405109489 0  -8.322099415573495 1.036062682633283 0  8.125 1.09765625 0  19.11075969939671 0.8508947319664032 0  -19.11075969939671 0.8508947319664032 0  -7.53125 0 0  8.71875 0 0  7.423362102206937 0.6655467048188293 0  9.90625 0 0  -6.34375 0 0  -10.07209987056368 0.6864155791813131 0  -5.15625 0 0  4.932893941568688 0.70313517104756 0  11.09375 0 0  -3.96875 0 0  12.28125 0 0  -12.56167362378033 0.7158719711052053 0  -15.12789358749343 1.239622257084254 0  19.375 2 0  -19.375 2 0  -7.586458743762512 0.7777256637040587 0  -8.876841588719831 0.5749490497356908 0  -2.78125 0 0  13.46875 0 0  2.486351124110562 0.6882204272146759 0  -2.484375 0.6875496078884429 0  13.765625 0.6685592193186988 0  6.127605163798639 0.5971727330055587 0  0.625 2 0  -0.625 2 0  -1.146535794159178 1.28513409566998 0  1.146535794159178 1.285134095669981 0  14.65625 0 0  14.953125 0.6512707752786624 0  -14.87682753143027 0.5890664696931456 0  12.578125 0.6384885491877257 0  -3.671875 0.6384885491877257 0  -15.625 2 0  -11.36675239212577 0.6158089665857418 0  15.00271470412651 1.324726469417674 0  17.53235848397354 0.7266244978817956 0  11.390625 0.6116981677410314 0  -4.859375 0.6116981677410314 0  15.84375 0 0  16.140625 0.6148897058823529 0  7.497593266890831 1.330710907262048 0  13.76254792112057 1.334335181755445 0  -10.20969602084016 1.352738855957021 0  17.03125 0 0  3.639986821556412 0.6311208834101457 0  -2.422032960990368 1.344610008595471 0  -1.875 2 0  2.42168763602468 1.344854035092462 0  1.875 2 0  -6.046875 0.5879464285714285 0  10.203125 0.5879464285714285 0  4.785027294216357 1.360955117010924 0  -16.43327865604348 1.32661481258014 0  -16.44139997701004 0.663326532427168 0  -12.71719161438206 1.366886164755866 0  9.015625 0.567039754702805 0  -13.85227446991684 0.6433291643838606 0  17.68435132148515 1.367585767263021 0  -8.125 2 0  -7.779164034427432 1.405551895778211 0  6.875 2 0  -16.875 2 0  16.25211206745888 1.264109755085799 0  -3.748868614850469 1.292331074664245 0  12.50113138514953 1.292331074664245 0  -4.999425840599162 1.238293400364507 0  11.25057415940084 1.238293400364507 0  10.00021284174179 1.186027320246887 0  -6.249787158258211 1.186027320246887 0  8.750028772491092 1.133996757348608 0  8.125 2 0  -9.375 2 0  -6.875 2 0  9.375 2 0  10.625 2 0  5.625 2 0  -5.625 2 0  -11.875 2 0  11.875 2 0  -4.375 2 0  3.125 2 0  13.125 2 0  -14.375 2 0  14.375 2 0  15.625 2 0  -18.125 2 0  16.875 2 0  -3.125 2 0  -10.625 2 0  4.375 2 0  -13.125 2 0  18.125 2 0  -17.62042339570457 1.322431301452557 0  -17.64048254773117 0.661277151197267 0  -1.59375 0 0  1.59375 0 0  -19.40625 0 0  19.40625 0 0  20 0.5 0  19.0625 1.466926268772181 0  -18.7305243036722 1.362703047674974 0  -5.451064633443578 0.5209722999527524 0  10.79893536655642 0.5209722999527524 0  9.610417111950763 0.5183010867631196 0  -13.46875 0 0  3.96875 0 0  -11.09375 0 0  6.34375 0 0  2.78125 0 0  -8.71875 0 0  -12.28125 0 0  5.15625 0 0  -9.90625 0 0  7.53125 0 0  -15.84375 0 0  -17.03125 0 0  -18.21875 0 0  18.21875 0 0  -14.65625 0 0  20 1.5 0  -19.48071156660626 1.370757229128913 0  -20 0.5 0  -4.24552725411087 0.5169543671041
[...]
<PointData  Scalars="f_53868"> 
<DataArray  type="Float64"  Name="f_53868"  format="ascii">1.0276886864766595e+00  9.9987488928871959e-01  9.9818296230324777e-01  9.9943484633916491e-01  9.9569596019575723e-01  9.9450149535989618e-01  9.8855482550601703e-01  9.8546300065128645e-01  9.7074106968115692e-01  9.4696074658049467e-01  9.8403758229308302e-01  9.5491268607268698e-01  9.4368438494623808e-01  9.2790313716413819e-01  9.1685629915047895e-01  9.0377158437443328e-01  8.9104645501079660e-01  8.7566757256150063e-01  8.6744207929843276e-01  8.4550985111452226e-01  8.3114650485228758e-01  8.1664887197304836e-01  8.0939417741837161e-01  7.8689570529892394e-01  7.7442501193026947e-01  7.6199239696195675e-01  7.5907055793906741e-01  7.4137822118404328e-01  7.3366621295583756e-01  7.2642100793661535e-01  7.3071197584276060e-01  7.2064820776484628e-01  7.2299757659915986e-01  7.3501514996259554e-01  7.3536246084515478e-01  7.5859696048855962e-01  7.6638981375880832e-01  7.9097829787686968e-01  8.1524981520149375e-01  8.5712502617926201e-01  8.7988798467541207e-01  9.2698263998189445e-01  9.7653477410035716e-01  1.0312093165146106e+00  1.0974857621248579e+00  1.1776608529352381e+00  1.1611450615214178e+00  1.2183040166156731e+00  1.4062856597484954e+00  1.4693420035508649e+00  1.5617572646331657e+00  1.6418609342779049e+00  1.7908588574830162e+00  1.9158416707750361e+00  1.9908550463854022e+00  2.0738296364566224e+00  2.1419697552377648e+00  2.2454434085496970e+00  2.3673827772124185e+00  2.4707034896329425e+00  2.5471964876831721e+00  2.7152154041753773e+00  2.8208826132270426e+00  2.8554610559100877e+00  3.0081538184059284e+00  3.1055930225529456e+00  3.1168624595758119e+00  3.1029427373188185e+00  3.0752632571704681e+00  3.1920260207885285e+00  3.2502037535614439e+00  3.2230464197385191e+00  3.2076429814556846e+00  3.2452473644329847e+00  3.2632901684570319e+00  3.2616792504698338e+00  3.0990748223292428e+00  3.0020171045901494e+00  2.9753718498378405e+00  2.9992947946884008e+00  3.0277800842463720e+00  3.0078755709777196e+00  2.9639219584949381e+00  2.8355029116574202e+00  2.7714551962786365e+00  2.7173870092201948e+00  2.6283828118808961e+00  2.5443747001122414e+00  2.4673340662450074e+00  2.3624965647765039e+00  2.2986714319951957e+00  2.2468834311261272e+00  2.1830720369881211e+00  2.1002833800521064e+00  2.0366324305306822e+00  1.9780416267551433e+00  1.9119390628215422e+00  1.8363923043333235e+00  1.7765885658326079e+00  1.7277746363571393e+00  1.6697618354777086e+00  1.6148348731353313e+00  1.5713079945097144e+00  1.5230712778817392e+00  1.4786333970196579e+00  1.4457906106047440e+00  1.4021528397281335e+00  1.3677987226490633e+00  1.3242585628525430e+00  1.2980082959720611e+00  1.2698492526306191e+00  1.2374628298141699e+00  1.2216456186388103e+00  1.1784559758106175e+00  1.0931337412757800e+00  1.1635685642455673e+00  1.1428569200630696e+00  1.1124726002954362e+00  1.0845753739109838e+00  1.0743023452840759e+00  1.0648366669430958e+00  1.0514808527990174e+00  1.0349819118687953e+00  1.0305436910652177e+00  1.0204135763583375e+00  1.0166702920953665e+00  1.0096294770129530e+00  1.0049344308221977e+00  1.0034397771607155e+00  9.9966774287848115e-01  1.0017656780469812e+00  1.0000001365127278e+00  1.0000000474011794e+00  1.4068694556901304e+00  9.9999999472841927e-01  1.0000000235772974e+00  1.0000000087450620e+00  1.0000659710339583e+00  9.9999998371595478e-01  9.9982084497487189e-01  9.9999827452866386e-01  9.9992793979187788e-01  1.0144229334147461e+00  9.9999997543148134e-01  1.0001484940447345e+00  9.8306265784303670e-01  1.0000117143703986e+00  9.8943516433308121e-01  1.0000000166785057e+00  1.0157028113470612e+00  1.0006229007263767e+00  9.9978188576007765e-01  9.9999999049152066e-01  1.0000000442617418e+00  9.9999963751821996e-01  1.0000003674872506e+00  1.0000000517370682e+00  1.0000000349055480e+00  1.0000000037401542e+00  1.0000000324720280e+00  1.0000003660624037e+00  9.9999961346575805e-01  9.9907267662089949e-01  1.0008925472377228e+00  9.9999998536299384e-01  1.0000000659999952e+00  9.9999999139895868e-01  9.9999997590063872e-01  9.9997528596635776e-01  1.0001109690693200e+00  1.0000000127706647e+00  1.0000009639715279e+00  9.9999992264175186e-01  9.9999999680133289e-01  1.0000000012456327e+00  1.0000000784881404e+00  1.0000001566872150e+00  9.9999994568082118e-01  1.0000067782798008e+00  9.9999174440816641e-01  9.9999759141635858e-01  1.0000004922049852e+00  9.9999985570820726e-01  1.0000000071599529e+00  1.0000000008395042e+00  9.9752069490470840e-01  1.0017740357464417e+00  9.9887821859016945e-01  1.0012177164140894e+00  1.1514106771778601e+00  1.0176638946060275e+00  1.0000000377144878e+00  1.0938133521376885e+00  9.3466161855281094e-01  1.0072076125374769e+00  9.9999999415105711e-01  9.9999998672676005e-01  9.9995427640240542e-01  1.0000000056998593e+00  9.9994200035574177e-01  9.9999059102521948e-01  1.0000000144764560e+00  9.9999998660187694e-01  9.9999921361547062e-01  9.8814072178590695e-01  1.0430666244760571e+00  1.0067185877467517e+00  9.9999994390680114e-01  1.0000000070417254e+00  9.9187863497271933e-01  1.0007119751760498e+00  9.9999999563897501e-01  1.0000000005286502e+00  9.9878720178227953e-01  1.0000484655238659e+00  9.9991049627414474e-01  1.0000000150766746e+00  9.9999999844791576e-01  1.0000000530066186e+00  1.0000018496451306e+00  9.9999996984166273e-01  9.9999362051134966e-01  9.9999992473264465e-01  1.0000001051483072e+00  9.9999998631918030e-01  1.0008586903674801e+00  1.0000002844591884e+00  9.9999972142507376e-01  9.9999944381543449e-01  9.9999993891156580e-01  9.9998278719868494e-01  1.0000000027469937e+00  9.9966641098589726e-01  1.0000978265299267e+00  9.9999997175239530e-01  9.9645064077173617e-01  1.0000000297530014e+00  9.9999999336094458e-01  9.9999487975020318e-01  1.0000000016992494e+00  1.0013233023209156e+00  1.0000003598468035e+00  1.0000000716324577e+00  9.7024333969892640e-01  9.9999997126382645e-01  1.0192660065310377e+00  9.9157680130194870e-01  9.9999998574270554e-01  1.0000127708857225e+00  1.2006065953682998e+00  1.3066651469248440e+00  1.1458358192782097e+00  1.0006378429831295e+00  9.9999999158235786e-01  1.0000000122500734e+00  1.0000014663873180e+00  9.9999998324327644e-01  9.9854021731503650e-01  9.9999288143698095e-01  9.9999999874876810e-01  9.9999999209478097e-01  9.9999999669916961e-01  1.0000000110474971e+00  9.9986744297601482e-01  9.9999999263010020e-01  9.9999999909106674e-01  9.9999994749812804e-01  1.0000000017692707e+00  9.9999999149084451e-01  9.9999998633386689e-01  1.0030338976479531e+00  1.0332510794414329e+00  1.0494810376403396e+00  9.6143660015647259e-01  9.7347160034144520e-01  9.9999641349550406e-01  9.9999997953735542e-01  9.9935206381242625e-01  9.9993592986778579e-01  1.0000289543173340e+00  9.9999999529093753e-01  9.9999989181874271e-01  1.0000000793487185e+00  9.9999999283845709e-01  9.9999982399509568e-01  9.9999958587171367e-01  9.9999935282976704e-01  9.9992428034728587e-01  1.0000000146584889e+00  1.0030891120446832e+00  9.9999998550137692e-01  1.0002202767073685e+00  1.0000000105147544e+00  1.0000000242351224e+00  1.0000102685768462e+00  1.0000001208584450e+00  1.0000002361481488e+00  9.9999998213614683e-01  9.9999933918983319e-01  1.0000000680266257e+00  1.0000000242451699e+00  9.9995999706526584e-01  1.0000105817443947e+00  1.0000000025395974e+00  1.0000000057541538e+00  1.0002910196227257e+00  9.9307288415786488e-01  1.0000000232341533e+00  9.9999962593084635e-01  1.0000000035342302e+00  9.9999999608646062e-01  9.9950265368655067e-01  9.9999996030593763e-01  1.0041391060854992e+00  9.9999999919309246e-01  9.9931115751574584e-01  9.9999999562219033e-01  9.9999999173213838e-01  9.9960966997606793e-01  1.0002451198011482e+00  8.7887242444983105e-01  1.1659144435701470e+00  9.9834414860201071e-01  1.0000000683328238e+00  9.9999998860593753e-01  9.9999997228015836e-01  9.9935337814072533e-01  9.9995389784428756e-01  9.9999999837184728e-01  9.9999995455090607e-01  1.0000002322118993e+00  1.0058826836023171e+00  1.0000000002208334e+00  1.0000378862990311e+00  1.0424584576570481e+00  1.0000001956520921e+00  9.9999999981094079e-01  1.0005468258879990e+00  1.0000000281018278e+00  1.0000006258111704e+00  1.0000387211857742e+00  1.0002868423280236e+00  1.0011056631319049e+00  1.0000000494469152e+00  1.0000035815718280e+00  1.0000000067740387e+00  1.0030615664019074e+00  1.0014589069882924e+00  9.9913869344357542e-01  1.0000000188809721e+00  9.9999999630583669e-01  1.0009166170964092e+00  9.9999996356804499e-01  1.0000000143187020e+00  9.9999999600515632e-01  1.0000000078383111e+00  9.9099746932768273e-01  1.0136534795359951e+00  9.3921783983246021e-01  1.1625431083251094e+00  1.0000000067666615e+00  1.0000108177287164e+00  9.9999959510746239e-01  1.0000000000870184e+00  9.9204344544464951e-01  1.1647130340117857e+00  1.2417228867442678e+00  1.0000000026726048e+00  1.0000000049090652e+00  9.9981608458672067e-01  1.0000847988183996e+00  9.9995793893261053e-01  9.9999937607739831e-01  9.9999994121820657e-01  9.9999997809797703e-01  1.0000000290731883e+00  9.9999992992258480e-01  9.9999975025382803e-01  1.0000000306787047e+00  9.9999991324563475e-01  1.0016228646627761e+00  9.9701755504556611e-01  1.0000000013225223e+00  9.9999999993981148e-01  9.9999821486896567e-01  9.9997582432998067e-01  1.0000003152938939e+00  1.0000001350082921e+00  1.0000054057343841e+00  9.9999009450058363e-01  1.0000002591894086e+00  9.9999982482617500e-01  9.9999999536083373e-01  9.9999828276187375e-01  9.9980374914267400e-01  1.0000000064832453e+00  1.0000000604952664e+00  1.0000006423525150e+00  1.0000124546419618e+00  1.0000000229145576e+00  1.0000005916184407e+00  9.9907373956421930e-01  1.1152289263579092e+00  9.2338856792345680e-01  1.0833013254966644e+00  1.0000003696540964e+00  9.6457235940924324e-01  1.0167802716290273e+00  1.0000000134783635e+00  9.9999993853410230e-01  9.9999999982150711e-01  1.0000679454602692e+00  9.9999961272781623e-01  1.0003484568708738e+00  1.0000000043426893e+00  1.0000000134662701e+00  9.9997514663925657e-01  1.0007208427278469e+00  9.9999997610105551e-01  9.9999999741967738e-01  1.0001443721558969e+00  9.7985204308491902e-01  1.0146246045393748e+00  1.0000000003502025e+00  1.0000000082716454e+00  9.9883838112818257e-01  9.9999997789935302e-01  9.9999998813102509e-01  1.0011804728184650e+00  1.0045794938002701e+00  1.0000000005821337e+00  9.9588453191521409e-01  1.0000004690064181e+00  1.0000000162788540e+00  9.9999975020846621e-01  9.9999999680432206e-01  1.0000000010250245e+00  1.0000237804204022e+00  9.9999999854436494e-01  9.9999143233660026e-01  9.9963073182668805e-01  9.9999800320060528e-01  1.0640489043594754e+00  9.3759001321001079e-01  1.2244071694660954e+00  9.9923423870959938e-01  1.0000000118939718e+00  9.9976456129046631e-01  1.0000000327633822e+00  1.0004734706572260e+00  9.9999998771529186e-01  9.9999653500325281e-01  9.9999998997775419e-01  1.0003490190148827e+00  1.0007775412159368e+00  1.1807432273713121e+00  1.1929443519452376e+00  1.0000000233472670e+00  1.0000000203144388e+00  1.0000726819782204e+00  1.0000000188956095e+00  9.9965721582052425e-01  1.0000002058011168e+00  1.0009460728902537e+00  9.9999997898053505e-01  9.9999999692507724e-01  1.0000021952489808e+00  1.0004026721414971e+00  9.9859755374498016e-01  9.9999999294772712e-01  1.0000002483878270e+00  9.9999998715984939e-01  9.9999999668855710e-01  1.0000000159495976e+00  1.0000000068529975e+00  9.9990539899626030e-01  9.9999975790160567e-01  1.0084290307609651e+00  9.9948129666455932e-01  1.0010760806263881e+00  1.0009839809031247e+00  1.0000000086896916e+00  1.0532779525750462e+00  9.9999998127573375e-01  1.0000000094375245e+00  1.0006467526322134e+00  1.0000000478760163e+00  1.0000004263842650e+00  1.0000012306397965e+00  1.0000000064721357e+00  9.9999847770799510e-01  9.9999632773209246e-01  9.9999997217151804e-01  1.2144230626202563e+00  9.9999999759054248e-01  9.9999999743470136e-01  1.0000042816199703e+00  9.9999969736053285e-01  1.0000000032008616e+00  9.9963940288086695e-01  9.9999972387330904e-01  9.9999986392266771e-01  1.0120421073237222e+00  9.8757253747671270e-01  1.0621101817638905e+00  1.0342786670171971e+00  1.0144602719949500e+00  1.0000001592799475e+00  9.7572896396794273e-01  9.5780734637790743e-01  1.0201571979149302e+00  1.0225294725628868e+00  1.0000001434321804e+00  9.9998668587045225e-01  1.0003023234643098e+00  1.0000003010455114e+00  9.9999999501382486e-01  9.9999852137229239e-01  9.6024611851973807e-01  1.0360143540390219e+00  9.9999998682317237e-01  1.0000000026598705e+00  9.9999999797441819e-01  1.0000000054566955e+00  9.9999999116893845e-01  9.9988755070456059e-01  9.6235162166515142e-01  1.0000000038431114e+00  1.0000000804532667e+00  1.0000000109481095e+00  1.0000000459569156e+00  1.0000000229960144e+00  9.9882194047544448e-01  1.0000000837369047e+00  9.9748229612077211e-01  9.9996550952838725e-01  1.0001215542427166e+00  9.9999998147616698e-01  1.0000000053234763e+00  1.0000000056076825e+00  9.9999999418183250e-01  1.0045284521675000e+00  1.0006719559034525e+00  1.0022058027886203e+00  9.9999999489267866e-01  9.9999744791628331e-01  1.0000833414240784e+00  9.9998641205033068e-01  9.9939953342976551e-01  9.9711888772069401e-01  1.0000000238533933e+00  1.0000000066246706e+00  9.9301930905012237e-01  9.9955549126900378e-01  9.9999999841934584e-01  1.0000000217023988e+00  9.9999999626747382e-01  9.9996099351145096e-01  9.9997010501553485e-01  1.0000070962265883e+00  1.0001252693303260e+00  9.9989996017023530e-01  1.0000106293135165e+00  9.9999999952982088e-01  9.9999999721670108e-01  9.9999999830948294e-01  9.0640667420169896e-01  9.1305914038607250e-01  1.0000000114249996e+00  1.0008679680501371e+00  1.0006148327205118e+00  9.9949538912914448e-01  9.9968133606527332e-01  1.0000000209058586e+00  1.0003033931617988e+00  1.0037916444927828e+00  1.0000022382434184e+00  1.0010217715833529e+00  1.0090517486881503e+00  9.9999999054984678e-01  9.9999997817064146e-01  1.0000000115438379e+00  9.9999999002263862e-01  1.0000000121055868e+00  9.9999964304165367e-01  9.9999999545874829e-01  9.9919950394970647e-01  9.9999999006517015e-01  1.0000000060107781e+00  1.0000152569873486e+00  1.0000000050899209e+00  9.9999999794511030e-01  9.9928979004275742e-01  9.9942189635089662e-01  9.9977743193113544e-01  9.9999999083413316e-01  1.0000675361912459e+00  1.0000671628559497e+00  1.0000000029422913e+00  1.0003309036692389e+00  1.0000004650392804e+00  9.9999983287004368e-01  1.0000000055964005e+00  9.9999999668302753e-01  9.9965451589627918e-01  1.0000000494827681e+00  1.0010856895896376e+00  1.0001782490030364e+00  9.9986712091032059e-01  1.0000040119759093e+00  9.9999999974147302e-01  1.0000000027935649e+00  1.0000000055092286e+00  1.0000000166534451e+00  9.9999989471327555e-01  9.9999973866665870e-01  9.9999978600497941e-01  1.0000000161637890e+00  1.0000000208726598e+00  9.9999032998660109e-01  1.0047702702224099e+00  9.9999963051641905e-01  9.9999999309523280e-01  9.9999999787251159e-01  1.0000000098289317e+00  9.6562540354190296e-01  9.9999999820715535e-01  9.9999999061659017e-01  9.9999999385206217e-01  9.9999999232012948e-01  1.0000000130800462e+00  9.9999999509390436e-01  1.0000000133974345e+00  1.0000092078335785e+00  1.0000201564716540e+00  9.9999998196525608e-01  9.9999998830594972e-01  9.9995456412336059e-01  9.9996426886825063e-01  9.9999996126794988e-01  9.9999024629363897e-01  9.9999940532052634e-01  9.9999976973446458e-01  9.9999993960963807e-01  1.0000000150052184e+00  9.9999998670560331e-01  1.0000000152662731e+00  9.9999999011740381e-01  1.0000001976802382e+00  1.0075076406531620e+00  1.0000000605004860e+00  9.9388967046182786e-01  9.9999999300974485e-01  1.2730239818585802e+00  1.0000036548137350e+00  1.0000068980555363e+00  1.0000000006525374e+00  1.0086881737796471e+00  9.9999999445104593e-01  9.9999997954619546e-01  8.7123852438238891e-01  1.1641921644681239e+00  9.9999998738526585e-01  9.9999999472005485e-01  1.0001067177157277e+00  1.0014838271985778e+00  9.9999999220721170e-01  9.9999998110617350e-01  1.0000000269286040e+00  9.9999990039203179e-01  1.0803658967528895e+00  1.0035886054662078e+00  9.9950369952344431e-01  1.2531711956570577e+00  1.3351418373173223e+00  9.9929360499788034e-01  1.0000240713701609e+00  1.1348960937076331e+00  1.1498124204571627e+00  1.0000000097090789e+00  9.9999990687695683e-01  1.2519748159824671e+00  1.0782506284063258e+00  1.0000002135414687e+00  9.9999768256752830e-01  1.0000000000738751e+00  1.0000019729205385e+00  1.0000010764145761e+00  9.9872110409043924e-01  1.0000000469434851e+00  9.3466055127406455e-01  1.1677516609488279e+00  9.8845327022557783e-01  9.9999999137853313e-01  9.8142704635477618e-01  9.9999997533473595e-01  1.0000024523132742e+00  9.9999999736396739e-01  9.9999877474093801e-01  9.9999997148972508e-01  9.9999997165338816e-01  1.0000003973876368e+00  1.0000005399515490e+00  9.9999999349863333e-01  1.0000000873140578e+00  9.9925706070175679e-01  9.9995588038263383e-01  1.0816187803513244e+00  1.2197307666339845e+00  9.9931089949273322e-01  9.9999665465799659e-01  1.0000000284228723e+00  9.9999997954281483e-01  1.0005956448589957e+00  9.9999998145710012e-01  1.0078940462329640e+00  9.8839681802685242e-01  1.0000000358017798e+00  9.9999997274018038e-01  1.0001219165077986e+00  1.0000251814681227e+00  1.0000000063391907e+00  9.7906795397804391e-01  1.0902542013498822e+00  9.9999999364961445e-01  1.0000023629772941e+00  9.9999950234430457e-01  1.0000000273636145e+00  1.0000000053062055e+00  1.0000000722431119e+00  1.0000001884651193e+00  9.9998675573158025e-01  9.9999912071082087e-01  9.9999995629317451e-01  9.9999996589858697e-01  9.9999999026222153e-01  9.9999940172268387e-01  9.9989651495493004e-01  9.9998149397421643e-01  9.9990628847794027e-01  1.0000000033981375e+00  1.0000000039260086e+00  1.0000000015883206e+00  9.9595002081651307e-01  9.9999982652144703e-01  9.9999998805534451e-01  1.0000000105049089e+00  1.4129216592652758e+00  1.0022782100077978e+00  1.0000000177419404e+00  9.7700240790285597e-01  1.0270718859145798e+00  9.9999999567981679e-01  9.9999715905982700e-01  1.0000003128655404e+00  1.0000000685001589e+00  1.0208577474908407e+00  1.0930350955593757e+00  1.0000887998450307e+00  9.8215033986397882e-01  1.0001195616003329e+00  9.9999998628208386e-01  9.9999997446116407e-01  9.9999997152730857e-01  9.9999921427091421e-01  1.0009603103810685e+00  1.0005631589082988e+00  1.0000000084545990e+00  9.9999396516998362e-01  1.0000000094653063e+00  9.9999998471094098e-01  1.1980808426581988e+00  9.9999965379792599e-01  1.0000000074211177e+00  8.7641593682089414e-01  9.1338294653960184e-01  1.0000001166955366e+00  1.2191891102413064e+00  1.0000000313631712e+00  9.9795389170787596e-01  9.9999888996982511e-01  9.9999999228428837e-01  9.9999937812328432e-01  9.9981352463292561e-01  9.9999999748284507e-01  9.8893217925616383e-01  1.0000000027158289e+00  1.0000001004095329e+00  1.0000003960500670e+00  9.9999997326869206e-01  9.9984479171365237e-01  9.5504286938058180e-01  1.0000026544232044e+00  9.9999990245271653e-01  9.9999895751060364e-01  1.0000001515831900e+00  9.9999960701097457e-01  9.9999983309637508e-01  1.0000006542911954e+00  1.0011822557363910e+00  1.0000000640756492e+00  1.0628640756632706e+00  1.0004431890354912e+00  1.0000035079898850e+00  1.0000000608790345e+00  9.9999969055239601e-01  1.0000168369036413e+00  1.0000000034348786e+00  1.0032829726927599e+00  1.0000000920361223e+00  9.9999999966510555e-01  1.0000221216608256e+00  1.0000000021648772e+00  1.0263968612243133e+00  9.9999997874706770e-01  9.9999999650721960e-01  1.0000000201994153e+00  1.0000002739276543e+00  1.0000001258424254e+00  1.0000805562083916e+00  1.0093041156219464e+00  9.9999984702289213e-01  1.0000004504815683e+00  9.8732375625660485e-01  9.9999999881076862e-01  1.0234298771652455e+00  1.0034384489985206e+00  1.0000273741448646e+00  1.0175400760983651e+00  1.07148891799