<?xml version="1.0"?>
<VTKFile type="UnstructuredGrid"  version="0.1"  >
<UnstructuredGrid>
<Piece  NumberOfPoints="2401" NumberOfCells="4608">
<Points>
<DataArray  type="Float64"  NumberOfComponents="3"  format="ascii">0 0 0  0.001070538380698371 0 0  0.004277569313095364 0 0  0.009607359798386061 0 0  0.01703708685546806 0 0  0.02653493525245065 0 0  0.03806023374436157 0 0  0.05156362923366253 0 0  0.06698729810778931 0 0  0.08426519384873815 0 0  0.1033233298543955 0 0  0.1240800962605269 0 0  0.1464466094067445 0 0  0.1703270924499866 0 0  0.1956192854956637 0 0  0.2222148834902257 0 0  0.2500000000000299 0 0  0.2788556548905322 0 0  0.308658283817491 0 0  0.339280267348458 0 0  0.3705904774487813 0 0  0.4024548389919803 0 0  0.4347369038900211 0 0  0.467298435384978 0 0  0.5000000000000517 0 0  0.5327015646151253 0 0  0.5652630961100813 0 0  0.5975451610081212 0 0  0.6294095225513188 0 0  0.6607197326516399 0 0  0.6913417161826045 0 0  0.7211443451095605 0 0  0.7500000000000597 0 0  0.7777851165098603 0 0  0.8043807145044185 0 0  0.829672907550091 0 0  0.8535533905933287 0 0  0.8759199037395413 0 0  0.8966766701456674 0 0  0.9157348061513193 0 0  0.9330127018922625 0 0  0.9484363707663832 0 0  0.961939766255678 0 0  0.9734650647475827 0 0  0.9829629131445586 0 0  0.9903926402016341 0 0  0.9957224306869181 0 0  0.9989294616193084 0 0  1 0 0  0 0.02083333333333333 0  0.001070538380698371 0.02083333333333333 0  0.004277569313095364 0.02083333333333333 0  0.009607359798386061 0.02083333333333333 0  0.01703708685546806 0.02083333333333333 0  0.02653493525245065 0.02083333333333333 0  0.03806023374436157 0.02083333333333333 0  0.05156362923366253 0.02083333333333333 0  0.06698729810778931 0.02083333333333333 0  0.08426519384873815 0.02083333333333333 0  0.1033233298543955 0.02083333333333333 0  0.1240800962605269 0.02083333333333333 0  0.1464466094067445 0.02083333333333333 0  0.1703270924499866 0.02083333333333333 0  0.1956192854956637 0.02083333333333333 0  0.2222148834902257 0.02083333333333333 0  0.2500000000000299 0.02083333333333333 0  0.2788556548905322 0.02083333333333333 0  0.308658283817491 0.02083333333333333 0  0.339280267348458 0.02083333333333333 0  0.3705904774487813 0.02083333333333333 0  0.4024548389919803 0.02083333333333333 0  0.4347369038900211 0.02083333333333333 0  0.467298435384978 0.02083333333333333 0  0.5000000000000517 0.02083333333333333 0  0.5327015646151253 0.02083333333333333 0  0.5652630961100813 0.02083333333333333 0  0.5975451610081212 0.02083333333333333 0  0.6294095225513188 0.02083333333333333 0  0.6607197326516399 0.02083333333333333 0  0.6913417161826045 0.02083333333333333 0  0.7211443451095605 0.02083333333333333 0  0.7500000000000597 0.02083333333333333 0  0.7777851165098603 0.02083333333333333 0  0.8043807145044185 0.02083333333333333 0  0.829672907550091 0.02083333333333333 0  0.8535533905933287 0.02083333333333333 0  0.8759199037395413 0.02083333333333333 0  0.8966766701456674 0.02083333333333333 0  0.9157348061513193 0.02083333333333333 0  0.9330127018922625 0.02083333333333333 0  0.9484363707663832 0.02083333333333333 0  0.961939766255678 0.02083333333333333 0  0.9734650647475827 0.02083333333333333 0  0.9829629131445586 0.02083333333333333 0  0.9903926402016341 0.02083333333333333 0  0.9957224306869181 0.02083333333333333 0  0.9989294616193084 0.02083333333333333 0  1 0.02083333333333333 0  0 0.04166666666666666 0  0.001070538380698371 0.04166666666666666 0  0.004277569313095364 0.04166666666666666 0  0.009607359798386061 0.04166666666666666 0  0.01703708685546806 0.04166666666666666 0  0.02653493525245065 0.04166666666666666 0  0.03806023374436157 0.04166666666666666 0  0.05156362923366253 0.04166666666666666 0  0.06698729810778931 0.04166666666666666 0  0.08426519384873815 0.04166666666666666 0  0.1033233298543955 0.04166666666666666 0  0.1240800962605269 0.04166666666666666 0  0.1464466094067445 0.04166666666666666 0  0.1703270924499866 0.04166666666666666 0  0.1956192854956637 0.04166666666666666 0  0.2222148834902257 0.04166666666666666 0  0.2500000000000299 0.04166666666666666 0  0.2788556548905322 0.04166666666666666 0  0.308658283817491 0.04166666666666666 0  0.339280267348458 0.04166666666666666 0  0.3705904774487813 0.04166666666666666 0  0.4024548389919803 0.04166666666666666 0  0.4347369038900211 0.04166666666666666 0  0.467298435384978 0.04166666666666666 0  0.5000000000000517 0.04166666666666666 0  0.5327015646151253 0.04166666666666666 0  0.5652630961100813 0.04166666666666666 0  0.5975451610081212 0.04166666666666666 0  0.6294095225513188 0.04166666666666666 0  0.6607197326516399 0.04166666666666666 0  0.6913417161826045 0.04166666666666666 0  0.7211443451095605 0.04166666666666666 0  0.7500000000000597 0.04166666666666666 0  0.7777851165098603 0.04166666666666666 0  0.8043807145044185 0.04166666666666666 0  0.829672907550091 0.04166666666666666 0  0.8535533905933287 0.04166666666666666 0  0.8759199037395413 0.04166666666666666 0  0.8966766701456674 0.04166666666666666 0  0.9157348061513193 0.04166666666666666 0  0.9330127018922625 0.04166666666666666 0  0.9484363707663832 0.04166666666666666 0  0.961939766255678 0.04166666666666666 0  0.9734650647475827 0.04166666666666666 0  0.9829629131445586 0.04166666666666666 0  0.9903926402016341 0.04166666666666666 0  0.9957224306869181 0.04166666666666666 0  0.9989294616193084 0.04166666666666666 0  1 0.04166666666666666 0  0 0.0625 0  0.001070538380698371 0.0625 0  0.004277569313095364 0.0625 0  0.009607359798386061 0.0625 0  0.01703708685546806 0.0625 0  0.02653493525245065 0.0625 0  0.03806023374436157 0.0625 0  0.05156362923366253 0.0625 0  0.06698729810778931 0.0625 0  0.08426519384873815 0.0625 0  0.1033233298543955 0.0625 0  0.1240800962605269 0.0625 0  0.1464466094067445 0.0625 0  0.1703270924499866 0.0625 0  0.1956192854956637 0.0625 0  0.2222148834902257 0.0625 0  0.2500000000000299 0.0625 0  0.2788556548905322 0.0625 0  0.308658283817491 0.0625 0  0.339280267348458 0.0625 0  0.3705904774487813 0.0625 0  0.4024548389919803 0.0625 0  0.4347369038900211 0.0625 0  0.467298435384978 0.0625 0  0.5000000000000517 0.0625 0  0.5327015646151253 0.0625 0  0.5652630961100813 0.0625 0  0.5975451610081212 0.0625 0  0.6294095225513188 0.0625 0  0.6607197326516399 0.0625 0  0.6913417161826045 0.0625 0  0.7211443451095605 0.0625 0  0.7500000000000597 0.0625 0  0.7777851165098603 0.0625 0  0.8043807145044185 0.0625 0  0.829672907550091 0.0625 0  0.8535533905933287 0.0625 0  0.8759199037395413 0.0625 0  0.8966766701456674 0.0625 0  0.9157348061513193 0.0625 0  0.9330127018922625 0.0625 0  0.9484363707663832 0.0625 0  0.961939766255678 0.0625 0  0.9734650647475827 0.0625 0  0.9829629131445586 0.0625 0  0.9903926402016341 0.0625 0  0.9957224306869181 0.0625 0  0.9989294616193084 0.0625 0  1 0.0625 0  0 0.08333333333333333 0  0.001070538380698371 0.08333333333333333 0  0.004277569313095364 0.08333333333333333 0  0.009607359798386061 0.08333333333333333 0  0.01703708685546806 0.08333333333333333 0  0.02653493525245065 0.08333333333333333 0  0.03806023374436157 0.08333333333333333 0  0.05156362923366253 0.08333333333333333 0  0.06698729810778931 0.08333333333333333 0  0.08426519384873815 0.08333333333333333 0  0.1033233298543955 0.08333333333333333 0  0.1240800962605269 0.08333333333333333 0  0.1464466094067445 0.08333333333333333 0  0.1703270924499866 0.08333333333333333 0  0.1956192854956637 0.08333333333333333 0  0.2222148834902257 0.08333333333333333 0  0.2500000000000299 0.08333333333333333 0  0.2788556548905322 0.08333333333333333 0  0.308658283817491 0.08333333333333333 0  0.339280267348458 0.08333333333333333 0  0.3705904774487813 0.08333333333333333 0  0.4024548389919803 0.08333333333333333 0  0.4347369038900211 0.08333333333333333 0  0.467298435384978 0.08333333333333333 0  0.5000000000000517 0.08333333333333333 0  0.5327015646151253 0.08333333333333333 0  0.5652630961100813 0.08333333333333333 0  0.5975451610081212 0.08333333333333333 0  0.6294095225513188 0.08333333333333333 0  0.6607197326516399 0.08333333333333333 0  0.6913417161826045 0.08333333333333333 0  0.7211443451095605 0.08333333333333333 0  0.7500000000000597 0.08333333333333333 0  0.7777851165098603 0.08333333333333333 0  0.8043807145044185 0.08333333333333333 0  0.829672907550091 0.08333333333333333 0  0.8535533905933287 0.08333333333333333 0  0.8759199037395413 0.08333333333333333 0  0.8966766701456674 0.08333333333333333 0  0.9157348061513193 0.08333333333333333 0  0.9330127018922625 0.08333333333333333 0  0.9484363707663832 0.08333333333333333 0  0.961939766255678 0.08333333333333333 0  0.9734650647475827 0.08333333333333333 0  0.9829629131445586 0.08333333333333333 0  0.9903926402016341 0.08333333333333333 0  0.9957224306869181 0.08333333333333333 0  0.9989294616193084 0.08333333333333333 0  1 0.08333333333333333 0  0 0.1041666666666667 0  0.001070538380698371 0.1041666666666667 0  0.004277569313095364 0.1041666666666667 0  0.009607359798386061 0.1041666666666667 0  0.01703708685546806 0.1041666666666667 0  0.02653493525245065 0.1041666666666667 0  0.03806023374436157 0.1041666666666667 0  0.05156362923366253 0.1041666666666667 0  0.06698729810778931 0.1041666666666667 0  0.08426519384873815 0.1041666666666667 0  0.1033233298543955 0.1041666666666667 0  0.1240800962605269 0.1041666666666667 0  0.1464466094067445 0.1041666666666667 0  0.1703270924499866 0.1041666666666667 0  0.1956192854956637 0.1041666666666667 0  0.2222148834902257 0.1041666666666667 0  0.2500000000000299 0.1041666666666667 0  0.2788556548905322 0.1041666666666667 0  0.308658283817491 0.1041666666666667 0  0.339280267348458 0.1041666666666667 0  0.3705904774487813 0.1041666666666667 0  0.4024548389919803 0.1041666666666667 0  0.4347369038900211 0.1041666666666667 0  0.467298435384978 0.1041666666666667 0  0.5000000000000517 0.1041666666666667 0  0.5327015646151253 0.1041666666666667 0  0.5652630961100813 0.1041666666666667 0  0.5975451610081212 0.1041666666666667 0  0.62
[...]
<CellData  Scalars="f_2215657"> 
<DataArray  type="Float64"  Name="f_2215657"  format="ascii">2.0136677669601117e-05   1.6017531069128465e-05   4.1973931766144077e-06   2.7649537091300995e-06   4.4799290310729109e-06   3.5456941098873055e-06   4.8161456645952261e-06   3.5858673386775219e-06   5.0162343628796152e-06   3.7630310788992429e-06   5.1601928360027723e-06   3.8598614541511194e-06   5.2331406229123427e-06   3.9140229122079155e-06   5.2736174628092958e-06   3.9530994505169449e-06   5.3005465024565269e-06   3.9820951216764464e-06   5.3197213199616475e-06   4.0041313235551451e-06   5.3338715681884717e-06   4.0215136373348692e-06   5.3446597442364496e-06   4.0356521997550385e-06   5.3531108079389491e-06   4.0474387924851226e-06   5.3598750204348741e-06   4.0574735571438476e-06   5.3653827914848343e-06   4.0661751997005442e-06   5.3699292275613248e-06   4.0738442451427972e-06   5.3737222850462524e-06   4.0807020235177455e-06   5.3769117156326747e-06   4.0869153632957370e-06   5.3796071604805555e-06   4.0926127039148452e-06   5.3818897914333327e-06   4.0978949188041000e-06   5.3838199745154041e-06   4.1028427513473882e-06   5.3854423826286034e-06   4.1075220584200896e-06   5.3867894298604748e-06   4.1119875761665593e-06   5.3878835234149201e-06   4.1162856713066065e-06   5.3887384686714870e-06   4.1204564004024220e-06   5.3893601912645179e-06   4.1245350546094414e-06   5.3897468605152057e-06   4.1285533372702012e-06   5.3898884229736716e-06   4.1325402536331944e-06   5.3897654583624864e-06   4.1365227528607943e-06   5.3893471833752398e-06   4.1405261314329164e-06   5.3885882766369559e-06   4.1445741564036501e-06   5.3874239897041774e-06   4.1486888045621404e-06   5.3857626419769497e-06   4.1528894098463347e-06   5.3834739287141882e-06   4.1571907849180594e-06   5.3803703841330887e-06   4.1615995570588138e-06   5.3761771210880912e-06   4.1661071496462626e-06   5.3704808755683539e-06   4.1706762583594619e-06   5.3626409599875059e-06   4.1752133057679842e-06   5.3516224971604868e-06   4.1795060888987532e-06   5.3356327369095588e-06   4.1830743798078502e-06   5.3112295580277326e-06   4.1848811105837639e-06   5.2714797371818503e-06   4.1831910370186657e-06   5.2040444019821001e-06   4.1771702387912391e-06   5.0965551515109668e-06   4.1735657720929526e-06   4.9767374660140179e-06   4.1893043946386090e-06   4.8972611790520447e-06   4.1752899651004323e-06   3.6679685209716442e-06   3.8473817196038854e-06   3.3513532242208723e-06   3.5592370541267285e-06   1.0007624878387753e-05   9.7704604966263891e-06   1.9170646550347703e-06   1.9717763153967609e-06   3.0266127748587283e-06   1.9338365297183219e-06   3.0162918528942634e-06   2.3092901163306658e-06   3.0378028790598987e-06   2.4753549326997471e-06   3.0469654643234530e-06   2.4952498552569406e-06   3.0611253535563704e-06   2.5143261866638889e-06   3.0781220937621867e-06   2.5342047507609819e-06   3.0927764304932863e-06   2.5508375199230656e-06   3.1049660544296873e-06   2.5645563670341809e-06   3.1153390873374843e-06   2.5760154220607389e-06   3.1243190083718803e-06   2.5857537325769270e-06   3.1322060706398572e-06   2.5941795593855666e-06   3.1392324527947659e-06   2.6015908062444864e-06   3.1455776099384507e-06   2.6082080841040940e-06   3.1513808637946780e-06   2.6141981086007774e-06   3.1567519057019963e-06   2.6196891480722478e-06   3.1617785934987183e-06   2.6247817994472042e-06   3.1665326484093989e-06   2.6295565643859457e-06   3.1710738559181055e-06   2.6340792568828621e-06   3.1754532039775587e-06   2.6384049096725983e-06   3.1797152945161052e-06   2.6425806749335780e-06   3.1839002449199766e-06   2.6466480365348877e-06   3.1880452401439596e-06   2.6506445633118263e-06   3.1921858778477889e-06   2.6546053498488475e-06   3.1963573874520277e-06   2.6585642754229930e-06   3.2005958215233756e-06   2.6625551817446860e-06   3.2049393052420919e-06   2.6666130390449715e-06   3.2094294315737448e-06   2.6707752042265946e-06   3.2141129206443949e-06   2.6750828642997134e-06   3.2190436935150964e-06   2.6795827846128020e-06   3.2242855680942984e-06   2.6843295266043860e-06   3.2299159061005408e-06   2.6893883925759111e-06   3.2360306697428913e-06   2.6948394416450747e-06   3.2427516845297473e-06   2.7007831435540489e-06   3.2502373348031587e-06   2.7073486074986027e-06   3.2586988064537712e-06   2.7147058902988404e-06   3.2684250409252273e-06   2.7230851201218013e-06   3.2798205956973048e-06   2.7328077443793366e-06   3.2934680052044735e-06   2.7443422857490165e-06   3.3103000758621167e-06   2.7584122095359959e-06   3.3322390858426011e-06   2.7762160309599858e-06   3.3639275140665143e-06   2.7998798197060958e-06   3.4145366304438450e-06   2.8329182880163933e-06   3.4845624105086393e-06   2.8775650722655962e-06   3.4740424115001292e-06   2.9253980482299505e-06   3.1083789502634711e-06   2.9219107192504011e-06   2.7964053181249493e-06   2.8683840583746036e-06   8.6456440973754982e-06   8.9629616804752315e-06   1.6886035130814902e-06   1.8361825800727898e-06   1.8757278227359888e-06   1.4169347611395052e-06   2.1447185789124800e-06   1.6732499621374530e-06   2.2735046976390439e-06   1.9050919495073910e-06   2.2978700109253351e-06   1.9793770082526628e-06   2.3183952499783456e-06   2.0073865401155009e-06   2.3368804962142405e-06   2.0247735741929195e-06   2.3514584083662852e-06   2.0389834725339607e-06   2.3631261640378199e-06   2.0504639753403408e-06   2.3727220513418449e-06   2.0597945337549974e-06   2.3807930396900845e-06   2.0675624222983459e-06   2.3877178018964964e-06   2.0741731644136363e-06   2.3937648825202334e-06   2.0799061589906202e-06   2.3991293088262087e-06   2.0849620900568057e-06   2.4039562220641517e-06   2.0894886548001321e-06   2.4083560267781137e-06   2.0935970470793239e-06   2.4124145087210390e-06   2.0973728648644469e-06   2.4161997270050329e-06   2.1008834421138475e-06   2.4197668261258753e-06   2.1041828922075098e-06   2.4231614587294839e-06   2.1073156615212324e-06   2.4264222844932549e-06   2.1103191043564130e-06   2.4295828498958402e-06   2.1132253893143213e-06   2.4326730454101464e-06   2.1160629635218434e-06   2.4357202747387418e-06   2.1188577209193476e-06   2.4387504390329048e-06   2.1216339673840356e-06   2.4417888257477036e-06   2.1244152704504971e-06   2.4448609386008285e-06   2.1272252633539882e-06   2.4479933506786927e-06   2.1300884410636537e-06   2.4512146295943977e-06   2.1330310240215833e-06   2.4545564005311434e-06   2.1360819440525689e-06   2.4580546220890653e-06   2.1392740348330133e-06   2.4617511904402476e-06   2.1426455289572815e-06   2.4656960002842802e-06   2.1462420102564659e-06   2.4699496407698783e-06   2.1501190169165014e-06   2.4745869853558115e-06   2.1543456086690757e-06   2.4797019482049329e-06   2.1590093173542497e-06   2.4854138275956097e-06   2.1642231464673194e-06   2.4918761676761765e-06   2.1701355507397251e-06   2.4992893608703220e-06   2.1769448076883539e-06   2.5079033976629923e-06   2.1849182560511402e-06   2.5179094171594301e-06   2.1944155539269972e-06   2.5289900565523593e-06   2.2058480763849045e-06   2.5392433419461944e-06   2.2192469822340414e-06   2.5437598472535820e-06   2.2325989387743471e-06   2.5377880810144469e-06   2.2396506510672931e-06   2.5054574174281120e-06   2.2162001974065096e-06   2.4672528707323108e-06   2.4228463829856463e-06   8.9598096876575079e-06   9.3356474932652181e-06   1.6660689634596655e-06   1.8997847394724875e-06   1.8076714809162124e-06   1.1687911605061749e-06   1.7758720449946077e-06   1.6617049614942113e-06   1.8917706856041601e-06   1.7139777947348023e-06   1.9300578489908116e-06   1.7910374483220290e-06   1.9512392974613562e-06   1.8155586395230412e-06   1.9653791324340315e-06   1.8281627334824750e-06   1.9760196789141500e-06   1.8372190136715862e-06   1.9843087990920255e-06   1.8441987876160056e-06   1.9909678026253966e-06   1.8497970632020064e-06   1.9964698784204444e-06   1.8544107281939690e-06   2.0011258432822674e-06   1.8583018918484748e-06   2.0051462193722110e-06   1.8616527373173441e-06   2.0086792650002410e-06   1.8645911564672524e-06   2.0118326559776259e-06   1.8672093159460014e-06   2.0146866841269596e-06   1.8695755772313316e-06   2.0173026839866086e-06   1.8717419261278612e-06   2.0197285829142163e-06   1.8737488244396955e-06   2.0220026599095146e-06   1.8756284888903327e-06   2.0241561586230427e-06   1.8774071546576191e-06   2.0262151614814514e-06   1.8791066875247803e-06   2.0282019599670401e-06   1.8807457627118857e-06   2.0301360918336075e-06   1.8823407503079725e-06   2.0320351556723018e-06   1.8839064095390485e-06   2.0339154671918589e-06   1.8854564542753363e-06   2.0357926206130854e-06   1.8870040384512597e-06   2.0376819950248325e-06   1.8885622002204339e-06   2.0395992339179944e-06   1.8901442939998609e-06   2.0415607327000295e-06   1.8917644399089258e-06   2.0435841544480433e-06   1.8934380257346595e-06   2.0456890070415963e-06   1.8951822841490026e-06   2.0478972944863037e-06   1.8970170033662579e-06   2.0502342692109853e-06   1.8989654069845788e-06   2.0527292638044384e-06   1.9010552755402304e-06   2.0554165392960751e-06   1.9033203944192480e-06   2.0583359251823717e-06   1.9058023879643488e-06   2.0615326006743371e-06   1.9085530147454558e-06   2.0650541156165519e-06   1.9116366864419991e-06   2.0689384376103171e-06   1.9151322808198685e-06   2.0731784617927970e-06   1.9191295750688466e-06   2.0776380705897565e-06   1.9237099809931348e-06   2.0818422111512246e-06   1.9288655767064610e-06   2.0839325719468585e-06   1.9342584191481286e-06   2.0763610859966498e-06   1.9379700690049035e-06   2.0328373066713768e-06   1.9324236987818945e-06   1.8998515815779662e-06   1.8865504283177539e-06   2.0742455909655735e-06   2.0413177609295669e-06   9.0223460971792845e-06   9.3396785662619721e-06   1.7673193698525199e-06   1.8691648706140162e-06   1.5991900390170760e-06   9.5960410382404812e-07   1.6762467082131039e-06   1.4728016442700050e-06   1.7051107664136361e-06   1.5926941150602246e-06   1.7421478461092369e-06   1.6267955397133564e-06   1.7607607124126219e-06   1.6497208869193787e-06   1.7726327188439077e-06   1.6633726744162337e-06   1.7815785948821034e-06   1.6722073451189490e-06   1.7886047121850903e-06   1.6789269134357964e-06   1.7943035101961834e-06   1.6843079752102873e-06   1.7990497476966628e-06   1.6887433572231416e-06   1.8030942821184444e-06   1.6924909258844086e-06   1.8066084941604089e-06   1.6957246242820811e-06   1.8097139743838983e-06   1.6985656894453908e-06   1.8124995875128309e-06   1.7011017187718810e-06   1.8150320491587898e-06   1.7033977695675681e-06   1.8173626800220488e-06   1.7055033890731054e-06   1.8195318655547157e-06   1.7074572220607712e-06   1.8215721007971330e-06   1.7092901104378309e-06   1.8235101163936374e-06   1.7110272342209976e-06   1.8253684127761165e-06   1.7126896406579282e-06   1.8271663973143691e-06   1.7142953605449593e-06   1.8289212497090846e-06   1.7158602554846965e-06   1.8306486105296055e-06   1.7173986836815638e-06   1.8323631515026644e-06   1.7189240414586610e-06   1.8340790718236787e-06   1.7204492390432926e-06   1.8358105583598224e-06   1.7219871343023104e-06   1.8375722430018779e-06   1.7235509597151061e-06   1.8393796747080324e-06   1.7251547792407212e-06   1.8412498519789041e-06   1.7268139898939808e-06   1.8432018309261959e-06   1.7285459256105173e-06   1.8452574523373501e-06   1.7303705915834940e-06   1.8474422211204642e-06   1.7323116008992954e-06   1.8497863628987165e-06   1.7343973801016189e-06   1.8523260651447190e-06   1.7366627649842996e-06   1.8551047819633459e-06   1.7391510885009205e-06   1.8581741980591469e-06   1.7419168860146571e-06   1.8615935244313377e-06   1.7450291354929553e-06   1.8654230747451230e-06   1.7485744370327723e-06   1.8697004877270745e-06   1.7526565279139108e-06   1.8743514751803143e-06   1.7573823215109765e-06   1.8788641629386971e-06   1.7627746456375036e-06   1.8811361529625673e-06   1.7684260155139793e-06   1.8739201940327327e-06   1.7718823277757925e-06   1.8338388915512449e-06   1.7643164279926300e-06   1.7155451092198806e-06   1.7151108649717407e-06   1.8826307005128331e-06   1.8669089966016961e-06   8.9827007767231407e-06   9.3039915826843640e-06   1.8007177225999974e-06   1.8575201025777367e-06   1.4664453639667627e-06   9.7873704493806650e-07   1.5558911702440676e-06   1.3519291632053400e-06   1.5908551541931875e-06   1.5354578337080281e-06   1.6151860078471511e-06   1.5624174379307729e-06   1.6303341520717870e-06   1.5820145852428174e-06   1.6406500348134494e-06   1.5933297999797840e-06   1.6482341317793842e-06   1.6013091637665594e-06   1.6542090468676851e-06   1.6073550893905081e-06   1.6590788706856386e-06   1.6121581591829112e-06   1.6631512703581394e-06   1.6161159155761801e-06   1.6666332736436711e-06   1.6194612592268558e-06   1.6696674663064025e-06   1.6223489320827443e-06   1.6723558200458479e-06   1.6248871002207007e-06   1.6747732269190546e-06   1.6271539132633822e-06   1.6769761711258376e-06   1.6292073922334608e-06   1.6790082713677453e-06   1.6310917510810312e-06   1.6809039762906484e-06   1.6328414891258072e-06   1.6826910990378728e-06   1.6344841518782649e-06   1.6843925983253489e-06   1.6360422390032180e-06   1.6860278733869401e-06   1.6375345635187621e-06   1.6876137228771957e-06   1.6389772548218051e-06   1.6891650833488678e-06   1.6403845110381150e-06   1.6906956201939066e-06   1.6417691937622427e-06   1.6922182179560249e-06   1.6431433152722130e-06   1.6937454137836489e-06   1.6445184629112301e-06   1.6952898023320373e-06   1.6459061862806571e-06   1.6968644370366696e-06   1.6473183852136710e-06   1.6984832605233768e-06   1.6487677112547234e-06   1.7001615749563010e-06   1.6502680287426175e-06   1.7019166026707853e-06   1.6518349451275740e-06   1.7037681465296617e-06   1.6534864784231173e-06   1.7057394041624288e-06   1.6552438899037127e-06   1.7078579430761576e-06   1.6571327701624610e-06   1.7101568640537601e-06   1.6591844521547432e-06   1.7126760286851734e-06   1.6614378649209872e-06   1.7154629416567036e-06   1.6639418846248049e-06   1.7185720093203137e-06   1.6667580214870469e-06   1.7220579260288515e-06   1.6699627201854492e-06   1.7259509168472063e-06   1.6736451803224302e-06   1.7301692552100787e-06   1.6778900180073646e-06   1.7342344848408053e-06   1.6826857868565094e-06   1.7362234393845142e-06   1.6875904233825557e-06   1.7290520899545939e-06   1.6901848098721182e-06   1.6888787706517479e-06   1.6817368550813583e-06   1.5740601941635615e-06   1.6324104361739202e-06   1.7843617005787026e-06   1.8061272487568973e-06   8.9813848348618678e-06   9.3050069242656617e-06   1.8017157984818412e-06   1.8590207042614958e-06   1.4724845783575075e-06   9.9982575682716704e-07   1.4910170054225243e-06   1.3528573426568790e-06   1.5514515690263796e-06   1.5050409159869127e-06   1.5683937956235407e-06   1.5522175915172272e-06   1.5814700472200648e-06   1.5675849464210244e-06   1.5903957585546193e-06   1.5782643039455316e-06   1.5970827520285033e-06   1.5858446424504992e-06   1.6023537261085023e-06   1.5915698835176181e-06   1.6066522466713884e-06   1.5961416323844819e-06   1.6102535112683071e-06   1.5999094019011285e-06   1.6133367671469712e-06   1.6030941884624817e-06   1.6160262792533130e-06   1.6058438217880815e-06   1.6184111030487637e-06   1.6082609728139377e-06   1.6205568091703567e-06   1.6104197536407390e-06   1.6225129645803700e-06   1.6123752319373718e-06   1.6243179183894745e-06   1.6141693972333997e-06   1.6260020071063996e-06   1.6158350311460126e-06   1.6275897579752764e-06   1.6173983193322863e-06   1.6291014438684398e-06   1.6188806567700391e-06   1.6305542061388518e-06   1.6202999396379791e-06   1.6319628981052014e-06   1.6216715081628805e-06   1.6333407319056831e-06   1.6230088637943321e-06   1.6346997948557537e-06   1.6243242338663671e-06   1.6360514785851946e-06   1.6256290330551206e-06   1.6374068635577519e-06   1.6269342628724755e-06   1.6387770673370135e-06   1.6282508844222977e-06   1.6401736030969633e-06   1.6295901789006455e-06   1.6416087455104432e-06   1.6309641357381940e-06   1.6430959492498152e-06   1.6323858793430426e-06   1.6446503190208220e-06   1.6338701804163764e-06   1.6462891803581066e-06   1.6354340750953578e-06   1.6480327547847000e-06   1.6370976546846880e-06   1.6499049642552681e-06   1.6388850787125393e-06   1.6519343289099146e-06   1.6408258983689872e-06   1.6541548202159517e-06   1.6429567580541621e-06   1.6566061610744368e-06   1.6453235267276639e-06   1.6593321672307170e-06   1.6479836231929074e-06   1.6623727048520436e-06   1.6510077426014324e-06   1.6657367959161222e-06   1.6544767499839285e-06   1.6693116340208678e-06   1.6584627241141311e-06   1.6725652199489596e-06   1.6629334469086539e-06   1.6734518392973433e-06   1.6674040347807562e-06   1.6647264027293737e-06   1.6693502550064134e-06   1.6229142080107925e-06   1.6598831654451465e-06   1.5101286822267069e-06   1.6102242506929262e-06   1.7518092099415486e-06   1.7971997068040995e-06   8.9826551662834128e-06   9.3054303076277918e-06   1.8002878372188036e-06   1.8591419298578520e-06   1.4885908097354156e-06   9.9758514474446349e-07   1.4863441250980048e-06   1.3705560673298309e-06   1.5396139229165989e-06   1.5020132234790475e-06   1.5611927773878161e-06   1.5497791608550041e-06   1.5727918561831157e-06   1.5675175022170384e-06   1.5812746213183886e-06   1.5778767305975740e-06   1.5876788768840770e-06   1.5852932051437846e-06   1.5927212447307489e-06   1.5909811528161172e-06   1.5968373812897813e-06   1.5955199951370425e-06   1.6002866285990648e-06   1.5992616027176124e-06   1.6032403561189319e-06   1.6024263686314163e-06   1.6058173909176559e-06   1.6051596734353430e-06   1.6081026843546774e-06   1.6075631673174595e-06   1.6101588527866936e-06   1.6097102390445855e-06   1.6120332394508349e-06   1.6116554161910654e-06   1.6137624797148965e-06   1.6134402797259447e-06   1.6153755608640396e-06   1.6150973006293310e-06   1.6168959220158806e-06   1.6166524223345301e-06   1.6183429354676708e-06   1.6181268495611461e-06   1.6197329829370509e-06   1.6195383253053525e-06   1.6210802573355321e-06   1.6209020644305649e-06   1.6223973788277987e-06   1.6222314673546531e-06   1.6236958895143227e-06   1.6235386735152662e-06   1.6249866625123283e-06   1.6248350232879543e-06   1.6262802629167569e-06   1.6261314554206468e-06   1.6275872862419678e-06   1.6274388704750271e-06   1.6289186882942389e-06   1.6287684989256817e-06   1.6302861362450405e-06   1.6301322790277443e-06   1.6317023943085188e-06   1.6315432848381262e-06   1.6331817676762416e-06   1.6330162340537312e-06   1.6347406254879093e-06   1.6345681058313406e-06   1.6363980165820757e-06   1.6362189293132059e-06   1.6381763889855641e-06   1.6379927885948411e-06   1.6401023658709470e-06   1.6399191410553284e-06   1.6422074012510383e-06   1.6420345073806943e-06   1.6445277877639998e-06   1.6443845795801248e-06   1.6471025271691832e-06   1.6470265224335455e-06   1.6499645407886893e-06   1.6500306724273075e-06   1.6531124565411179e-06   1.6534773975624824e-06   1.6564167986759618e-06   1.6574380523967707e-06   1.6593162373150216e-06   1.6618790787465480e-06   1.6597123786612049e-06   1.6663126321316081e-06   1.6502664353433810e-06   1.6682076789922232e-06   1.6073413851260067e-06   1.6586812091677496e-06   1.4941887865162967e-06   1.6091251818590769e-06   1.7463697586321770e-06   1.7995826449750012e-06   8.9825264763443535e-06   9.3053395128366880e-06   1.7999923097964421e-06   1.8591530458574194e-06   1.4876982060403728e-06   9.9626297014515247e-07   1.4954756490225957e-06   1.3705361875031244e-06   1.5386545297959214e-06   1.5082607425632705e-06   1.5614388973173053e-06   1.5493993521607058e-06   1.5734635891388554e-06   1.5684927175219108e-06   1.5818191677987290e-06   1.5790734396618313e-06   1.5881740086505053e-06   1.5864996796297129e-06   1.5931936163854328e-06   1.5921961790017015e-06   1.5972922836145578e-06   1.5967479705044683e-06   1.6007266779527781e-06   1.6005038657977082e-06   1.6036681690586998e-06   1.6036810678109801e-06   1.6062347684677588e-06   1.6064256958444577e-06   1.6085