<?xml version="1.0"?>
<VTKFile type="UnstructuredGrid"  version="0.1"  >
<UnstructuredGrid>
<Piece  NumberOfPoints="2525" NumberOfCells="4203">
<Points>
<DataArray  type="Float64"  NumberOfComponents="3"  format="ascii">1.25 0 0  1.249623523370255 0.03067653565364036 0  1.248494320256466 0.06133459290927252 0  1.246613070848363 0.09195570449958429 0  1.243980908340246 0.1225214254119508 0  1.240599418248387 0.1530133439990203 0  1.236470637455976 0.1834130930692022 0  1.231597052986177 0.2137023609503765 0  1.225981600504038 0.2438629025201603 0  1.219627662548161 0.2738765501960873 0  1.21253906649318 0.3037252248790798 0  1.2047200822443 0.333390946843623 0  1.196175419665261 0.3628558465680779 0  1.186910225741296 0.3921021754986144 0  1.176930081478776 0.4211123167402751 0  1.166240998543424 0.4498687956687352 0  1.154849415639108 0.4783542904563622 0  1.142762194629413 0.5065516425062373 0  1.129986616404304 0.5344438667878526 0  1.116530376494394 0.5620141620682582 0  1.102401580435444 0.5892459210324971 0  1.087608738885889 0.61612274028723 0  1.07216076250034 0.642628430241527 0  1.056066956562134 0.6687470248588714 0  1.039337015378182 0.6944627912745027 0  1.02198101643948 0.7197602392723067 0  1.004009414350806 0.7446241306155417 0  0.9854330345332579 0.7690394882257835 0  0.9662630667034212 0.7929916052045569 0  0.9465110581331058 0.8164660536922209 0  0.9261889066936989 0.8394486935587729 0  0.9053088536893338 0.8619256809213336 0  0.8838834764831844 0.8838834764831843 0  0.8619256809213337 0.9053088536893337 0  0.8394486935587729 0.9261889066936989 0  0.8164660536922209 0.9465110581331055 0  0.7929916052045569 0.9662630667034212 0  0.7690394882257835 0.9854330345332578 0  0.7446241306155419 1.004009414350806 0  0.7197602392723067 1.02198101643948 0  0.6944627912745028 1.039337015378182 0  0.6687470248588716 1.056066956562134 0  0.642628430241527 1.07216076250034 0  0.6161227402872301 1.087608738885889 0  0.5892459210324973 1.102401580435444 0  0.5620141620682583 1.116530376494394 0  0.5344438667878527 1.129986616404304 0  0.5065516425062373 1.142762194629413 0  0.4783542904563623 1.154849415639108 0  0.4498687956687353 1.166240998543424 0  0.4211123167402751 1.176930081478776 0  0.3921021754986145 1.186910225741296 0  0.3628558465680779 1.196175419665261 0  0.333390946843623 1.2047200822443 0  0.30372522487908 1.21253906649318 0  0.2738765501960872 1.219627662548161 0  0.2438629025201604 1.225981600504038 0  0.2137023609503767 1.231597052986177 0  0.1834130930692022 1.236470637455976 0  0.1530133439990203 1.240599418248387 0  0.122521425411951 1.243980908340246 0  0.09195570449958432 1.246613070848363 0  0.06133459290927266 1.248494320256466 0  0.03067653565364033 1.249623523370255 0  7.654042494670958e-17 1.25 0  -0.03067653565364018 1.249623523370255 0  -0.06133459290927251 1.248494320256466 0  -0.09195570449958416 1.246613070848363 0  -0.1225214254119508 1.243980908340246 0  -0.1530133439990202 1.240599418248387 0  -0.1834130930692021 1.236470637455976 0  -0.2137023609503766 1.231597052986177 0  -0.2438629025201602 1.225981600504038 0  -0.2738765501960871 1.219627662548161 0  -0.3037252248790798 1.21253906649318 0  -0.3333909468436229 1.2047200822443 0  -0.3628558465680777 1.196175419665261 0  -0.3921021754986143 1.186910225741296 0  -0.4211123167402749 1.176930081478776 0  -0.4498687956687352 1.166240998543424 0  -0.4783542904563621 1.154849415639108 0  -0.5065516425062372 1.142762194629413 0  -0.5344438667878524 1.129986616404304 0  -0.5620141620682584 1.116530376494394 0  -0.5892459210324972 1.102401580435444 0  -0.61612274028723 1.087608738885889 0  -0.642628430241527 1.07216076250034 0  -0.6687470248588713 1.056066956562134 0  -0.6944627912745025 1.039337015378182 0  -0.7197602392723067 1.02198101643948 0  -0.7446241306155417 1.004009414350806 0  -0.7690394882257834 0.9854330345332579 0  -0.7929916052045567 0.9662630667034213 0  -0.8164660536922207 0.9465110581331059 0  -0.8394486935587731 0.9261889066936988 0  -0.8619256809213337 0.9053088536893337 0  -0.8838834764831843 0.8838834764831844 0  -0.9053088536893334 0.8619256809213338 0  -0.9261889066936986 0.8394486935587732 0  -0.9465110581331058 0.8164660536922208 0  -0.9662630667034212 0.7929916052045569 0  -0.9854330345332578 0.7690394882257836 0  -1.004009414350806 0.7446241306155419 0  -1.02198101643948 0.7197602392723068 0  -1.039337015378182 0.6944627912745027 0  -1.056066956562134 0.6687470248588714 0  -1.07216076250034 0.6426284302415273 0  -1.087608738885889 0.6161227402872302 0  -1.102401580435444 0.5892459210324973 0  -1.116530376494394 0.5620141620682586 0  -1.129986616404304 0.5344438667878525 0  -1.142762194629413 0.5065516425062374 0  -1.154849415639108 0.4783542904563624 0  -1.166240998543424 0.4498687956687354 0  -1.176930081478776 0.4211123167402754 0  -1.186910225741296 0.3921021754986143 0  -1.196175419665261 0.362855846568078 0  -1.2047200822443 0.3333909468436231 0  -1.21253906649318 0.3037252248790801 0  -1.219627662548161 0.2738765501960876 0  -1.225981600504038 0.2438629025201608 0  -1.231597052986177 0.2137023609503765 0  -1.236470637455976 0.1834130930692023 0  -1.240599418248387 0.1530133439990204 0  -1.243980908340246 0.122521425411951 0  -1.246613070848363 0.09195570449958466 0  -1.248494320256466 0.06133459290927246 0  -1.249623523370255 0.03067653565364041 0  -1.25 1.530808498934192e-16 0  -1.249623523370255 -0.0306765356536401 0  -1.248494320256466 -0.06133459290927215 0  -1.246613070848363 -0.09195570449958437 0  -1.243980908340246 -0.1225214254119507 0  -1.240599418248387 -0.1530133439990201 0  -1.236470637455976 -0.183413093069202 0  -1.231597052986177 -0.2137023609503762 0  -1.225981600504038 -0.2438629025201605 0  -1.219627662548161 -0.2738765501960873 0  -1.21253906649318 -0.3037252248790798 0  -1.2047200822443 -0.3333909468436228 0  -1.196175419665261 -0.3628558465680776 0  -1.186910225741296 -0.392102175498614 0  -1.176930081478776 -0.4211123167402752 0  -1.166240998543424 -0.4498687956687352 0  -1.154849415639108 -0.4783542904563621 0  -1.142762194629413 -0.5065516425062371 0  -1.129986616404304 -0.5344438667878523 0  -1.116530376494394 -0.5620141620682583 0  -1.102401580435444 -0.5892459210324971 0  -1.087608738885889 -0.6161227402872299 0  -1.07216076250034 -0.6426284302415269 0  -1.056066956562134 -0.6687470248588712 0  -1.039337015378182 -0.6944627912745025 0  -1.02198101643948 -0.7197602392723067 0  -1.004009414350806 -0.7446241306155416 0  -0.9854330345332579 -0.7690394882257834 0  -0.9662630667034213 -0.7929916052045566 0  -0.946511058133106 -0.8164660536922207 0  -0.9261889066936989 -0.8394486935587731 0  -0.9053088536893338 -0.8619256809213336 0  -0.8838834764831847 -0.8838834764831843 0  -0.8619256809213338 -0.9053088536893334 0  -0.8394486935587733 -0.9261889066936986 0  -0.8164660536922214 -0.9465110581331053 0  -0.7929916052045574 -0.9662630667034209 0  -0.7690394882257841 -0.9854330345332574 0  -0.7446241306155414 -1.004009414350806 0  -0.7197602392723066 -1.02198101643948 0  -0.6944627912745027 -1.039337015378182 0  -0.6687470248588716 -1.056066956562134 0  -0.6426284302415273 -1.07216076250034 0  -0.6161227402872302 -1.087608738885889 0  -0.5892459210324973 -1.102401580435444 0  -0.5620141620682586 -1.116530376494394 0  -0.5344438667878531 -1.129986616404304 0  -0.506551642506238 -1.142762194629413 0  -0.4783542904563629 -1.154849415639108 0  -0.4498687956687349 -1.166240998543424 0  -0.4211123167402749 -1.176930081478776 0  -0.3921021754986143 -1.186910225741296 0  -0.3628558465680781 -1.196175419665261 0  -0.3333909468436231 -1.2047200822443 0  -0.3037252248790802 -1.21253906649318 0  -0.2738765501960876 -1.219627662548161 0  -0.2438629025201608 -1.225981600504038 0  -0.2137023609503771 -1.231597052986176 0  -0.1834130930692029 -1.236470637455976 0  -0.1530133439990199 -1.240599418248387 0  -0.1225214254119506 -1.243980908340246 0  -0.09195570449958419 -1.246613070848363 0  -0.06133459290927254 -1.248494320256466 0  -0.03067653565364049 -1.249623523370255 0  -2.296212748401287e-16 -1.25 0  0.03067653565364003 -1.249623523370255 0  0.06133459290927207 -1.248494320256466 0  0.09195570449958373 -1.246613070848363 0  0.1225214254119501 -1.243980908340246 0  0.1530133439990195 -1.240599418248387 0  0.1834130930692024 -1.236470637455976 0  0.2137023609503766 -1.231597052986177 0  0.2438629025201604 -1.225981600504038 0  0.2738765501960872 -1.219627662548161 0  0.3037252248790797 -1.21253906649318 0  0.3333909468436227 -1.2047200822443 0  0.3628558465680776 -1.196175419665261 0  0.3921021754986139 -1.186910225741296 0  0.4211123167402745 -1.176930081478776 0  0.4498687956687345 -1.166240998543424 0  0.4783542904563625 -1.154849415639108 0  0.5065516425062375 -1.142762194629413 0  0.5344438667878527 -1.129986616404304 0  0.5620141620682583 -1.116530376494394 0  0.589245921032497 -1.102401580435444 0  0.6161227402872298 -1.087608738885889 0  0.6426284302415269 -1.07216076250034 0  0.6687470248588712 -1.056066956562134 0  0.6944627912745023 -1.039337015378182 0  0.7197602392723061 -1.02198101643948 0  0.7446241306155411 -1.004009414350806 0  0.7690394882257838 -0.9854330345332576 0  0.792991605204557 -0.9662630667034211 0  0.8164660536922209 -0.9465110581331058 0  0.8394486935587729 -0.9261889066936989 0  0.8619256809213336 -0.9053088536893338 0  0.8838834764831842 -0.8838834764831847 0  0.9053088536893333 -0.8619256809213339 0  0.9261889066936986 -0.8394486935587733 0  0.9465110581331053 -0.8164660536922214 0  0.9662630667034209 -0.7929916052045574 0  0.9854330345332574 -0.7690394882257843 0  1.004009414350806 -0.7446241306155416 0  1.02198101643948 -0.7197602392723066 0  1.039337015378182 -0.6944627912745027 0  1.056066956562134 -0.6687470248588716 0  1.07216076250034 -0.6426284302415274 0  1.087608738885889 -0.6161227402872304 0  1.102401580435443 -0.5892459210324974 0  1.116530376494394 -0.5620141620682587 0  1.129986616404304 -0.5344438667878532 0  1.142762194629413 -0.50655164250623
[...]
<PointData  Scalars="f_58"> 
<DataArray  type="Float64"  Name="f_58"  format="ascii">1.4857892490017138e-04  1.2579101877553312e-04  9.8219897557603778e-05  6.3398222170521501e-05  1.8678436813987440e-05  -2.7189588542363424e-05  -7.5270039521027079e-05  -1.2329548337148435e-04  -1.8014559157979716e-04  -2.3135649659127090e-04  -2.7313778599490605e-04  -3.1756926739585635e-04  -3.4968496473196365e-04  -3.7718834420407169e-04  -3.9349454825607301e-04  -3.9840999833926598e-04  -3.8801045197664127e-04  -3.6904396826880362e-04  -3.3671800529195146e-04  -2.8242697864081960e-04  -2.2145600614750804e-04  -1.3989952755931432e-04  -4.0772002812673761e-05  6.6051105736177607e-05  1.8681743291988452e-04  3.2207025798408346e-04  4.7276157783251706e-04  6.2366771464297658e-04  7.7909793070743449e-04  9.5312629695370207e-04  1.1211770024353522e-03  1.2742917610641092e-03  1.4357917792770136e-03  1.5550195263249657e-03  1.6698232469767279e-03  1.7648993796067617e-03  1.7926280811333376e-03  1.8000841763241556e-03  1.7260365108726294e-03  1.6576855473337637e-03  1.5248043261320986e-03  1.3158159976842112e-03  1.0991102448980842e-03  8.6776668490709508e-04  6.0084776909181698e-04  2.4336806543287108e-04  -6.8355191691276600e-05  -4.3449393602823820e-04  -8.7003910269121672e-04  -1.2241226350836632e-03  -1.5769478312451682e-03  -1.9278981743985550e-03  -2.2824857864291287e-03  -2.4279682311044428e-03  -2.5709232053301749e-03  -2.5333273307920220e-03  -2.4280888019570452e-03  -2.2825788573104882e-03  -1.9746722434994916e-03  -1.5214212216732106e-03  -1.0420704550889229e-03  -4.8132799339574103e-04  5.4302712912068622e-05  7.0862958150943371e-04  1.2291341345636194e-03  1.5271456829182204e-03  1.7669046589672984e-03  1.6934378710029673e-03  1.3089727898994371e-03  6.6909471394261777e-04  1.3493344404887623e-04  -5.8006401543458778e-04  -1.3045132430166255e-03  -1.3547818198090757e-03  -1.3950102331914899e-03  -6.7401783934494496e-04  1.2213428711284254e-04  1.5013494554036884e-03  2.7732540429439910e-03  4.2169473830717744e-03  5.5028315983727183e-03  6.1408852536599156e-03  6.3605480443292145e-03  5.7141169646367784e-03  4.7742335751140858e-03  2.9947891227214986e-03  6.4262685676437254e-04  -1.3716198558073173e-03  -3.3881710463360463e-03  -4.4903629467896791e-03  -4.6741771545438428e-03  -3.7061199417476693e-03  -1.8513749341324901e-03  2.8103571512795599e-04  2.4496459354711548e-03  4.0860459233211330e-03  5.2216606893108405e-03  5.5277066643821997e-03  4.6482823438316091e-03  2.5242515920557299e-03  -5.5994156410568642e-04  -3.5087354475963300e-03  -5.5094203362873184e-03  -5.5204371750354232e-03  -3.4947247236283359e-03  -1.1366052666780275e-03  1.6746769517976458e-03  8.3319367277926871e-03  2.0700757052657573e-02  3.9228300232421541e-02  6.3336174568025372e-02  9.2341467753024611e-02  1.2627527790497278e-01  1.6422630656866205e-01  2.0261755118697983e-01  2.4017703429188741e-01  2.7379647466142093e-01  3.0255151050012774e-01  3.2015166233060421e-01  3.2629656353407638e-01  3.2665912953313642e-01  3.2620259907854976e-01  3.2166290707531986e-01  2.8545780672689780e-01  2.3231371108607221e-01  1.6965677875794169e-01  1.1006272531108903e-01  5.4204472353146224e-02  -4.2879972922866217e-06  -5.4212203108146936e-02  -1.1007002857982809e-01  -1.6966331278393162e-01  -2.3232102137978952e-01  -2.8546384684393816e-01  -3.2166292301495142e-01  -3.2619783045230488e-01  -3.2664614985665708e-01  -3.2627170628947200e-01  -3.2010724518535999e-01  -3.0247982500668896e-01  -2.7368694324423115e-01  -2.4001940241138900e-01  -2.0239978159295202e-01  -1.6393981296295057e-01  -1.2591776046858871e-01  -9.1926622488681539e-02  -6.2895670943878434e-02  -3.8810151616361178e-02  -2.0367709236362531e-02  -8.1463845461268499e-03  -1.6743983606233364e-03  9.6454426686961594e-04  3.2116315666084988e-03  5.2098513189321564e-03  5.2418280014329480e-03  3.3378658684400423e-03  5.5631674347566239e-04  -2.2620627603327291e-03  -4.1695799988404605e-03  -4.8110202810612577e-03  -4.1811779898002213e-03  -2.6923390726988267e-03  -7.7997367318255332e-04  1.4372800630404064e-03  3.4986763390053963e-03  5.1773989662030557e-03  5.9606799331645482e-03  5.5993812832044665e-03  4.4106778248915873e-03  2.4000575434243534e-03  1.5933338043881538e-04  -1.8285106566608218e-03  -3.3801931053045273e-03  -4.5572038494904312e-03  -5.0400605579240861e-03  -4.7861849731351868e-03  -4.1317859685974781e-03  -2.9860202077825028e-03  -1.5910652311250820e-03  -3.9442527966842731e-04  7.0981608141401122e-04  1.7186577807792574e-03  2.2409157824343851e-03  2.5149702974272231e-03  2.2878931302925958e-03  1.6595730075392751e-03  7.1794549648660335e-04  3.2241767889337548e-06  -8.5628063612662442e-04  -1.6425281013560074e-03  -2.1631800775319620e-03  -2.3830328133500308e-03  -2.5315589325453102e-03  -2.4621727725357683e-03  -2.1860558753183010e-03  -1.9953850603010243e-03  -1.7458782140060750e-03  -1.5012273523650748e-03  -1.3229109040044289e-03  -1.2735522466702806e-03  -1.1897050942109792e-03  -1.2727956156447723e-03  -1.3371953335232110e-03  -1.4939022049440449e-03  -1.6575308060239381e-03  -1.9053518320860021e-03  -2.1231725192283920e-03  -2.3290939778885023e-03  -2.5455984242358778e-03  -2.7347369788417539e-03  -2.8083171628883906e-03  -2.8943231754075694e-03  -2.9009470513054565e-03  -2.8131521024706051e-03  -2.6986119032422970e-03  -2.5398651490241022e-03  -2.3405690796811742e-03  -2.0951941046548853e-03  -1.8362793200889485e-03  -1.5841662889489671e-03  -1.3232379279894380e-03  -1.0271620151495642e-03  -7.5060518606634972e-04  -5.0388694883776524e-04  -2.6790043854871856e-04  -1.1778811595165032e-05  1.8019858040580020e-04  3.6282988597723472e-04  5.1198711642886751e-04  6.3859602515615034e-04  7.4978605508793596e-04  8.0147665294258603e-04  8.4615506780420444e-04  8.7711358307950330e-04  8.9350031967156155e-04  8.7514189195032498e-04  8.5253302278003680e-04  8.1299516614111752e-04  7.6481375719515004e-04  7.2923442476717948e-04  6.6348446180193967e-04  6.0189812718550585e-04  5.5584759443399806e-04  4.9581395130091034e-04  4.4780437837186080e-04  3.9473960864363356e-04  3.4935365247290177e-04  3.2164316224834392e-04  2.8654127976885459e-04  2.6666298535044385e-04  2.4591154025024425e-04  2.3318579302133345e-04  2.1561028163052278e-04  2.0164247863646340e-04  1.9221090102462354e-04  1.7036084576560291e-04  2.7867600922023145e-03  -1.1697608033267909e-04  -2.4197354255058468e-04  2.2877017274103677e-03  -1.3555102476220135e-03  -4.9672522850547074e-03  8.9439761632053216e-04  2.8248737182036215e-03  -2.8086150596018340e-04  -3.0944325838598847e-03  4.7707813674061697e-03  4.8682509289327963e-03  2.4446581240926157e-03  1.5152132075251525e-03  2.2169866785684022e-03  -2.2795458464704298e-03  -7.9644785528726805e-03  -1.5419695552026561e-04  -2.1447931393154608e-05  2.5969126542525573e-03  3.0780093312258927e-03  -5.8158943756766838e-04  -2.7213072271635194e-03  -2.8035339750376630e-03  -4.9009934260704313e-04  1.3857671945709049e-03  -1.6078532639335200e-04  6.1093880240479018e-04  3.6113763079074117e-03  2.2446768572423817e-04  -2.5052198726896987e-03  -3.9323533659044669e-03  -3.0763251620225373e-03  -5.0588595169154069e-03  -2.7708237434666519e-03  -1.5547399594113818e-03  3.4294802903307530e-04  4.8401767710740980e-04  9.2960327146285077e-04  2.8947759475182471e-03  3.8194416006926643e-03  5.1745402044000796e-04  -4.8084787272449593e-03  -1.8273174470991320e-03  -3.3161096887533294e-03  -5.2294266287389668e-03  -5.8779303122393010e-04  -9.2816185548948095e-04  -2.0566021665164524e-03  -2.0404533359314066e-03  -3.4575299286152615e-03  -2.6985965673431418e-03  -1.6764404652510683e-03  -4.7175204626774200e-03  -3.7717908192947160e-03  -3.0701848800247181e-03  -2.1090958470752069e-03  4.0810110893704668e-04  -8.7124509139263205e-04  3.5716173687288659e-04  4.0509706475663184e-03  2.7159357863539004e-03  1.9984516563681691e-03  3.3192387265579331e-03  3.5471672099010405e-03  -8.5441236662835038e-05  -1.3125199941167317e-03  1.2120948902277346e-03  1.5935073394762569e-03  2.3821594741356704e-03  2.1881348156052691e-03  -1.8055705766925202e-04  -2.5592879204968748e-03  -4.3669005835026803e-04  -1.2968911142595596e-03  -2.7877059040863007e-03  -1.1521884907370009e-03  1.5421617327057596e-03  -1.3135729125282197e-05  9.8895804023630936e-04  8.0302568838921604e-03  4.8686058264575957e-03  1.4713313633766471e-03  1.9053853160383820e-03  4.4776888767841892e-03  4.3094470012422434e-03  -1.5851846649399902e-04  -3.4468776866362501e-03  -5.2996743948399748e-04  -1.2724819008396884e-03  -9.2828114898675955e-04  -1.1771413256904996e-03  -1.6787433098280709e-04  -5.4001613684185234e-04  -1.4576092167963104e-03  1.6056087121964599e-03  4.5890227686350600e-03  5.0972379396000212e-03  8.8395238221002075e-03  7.8627681809072016e-03  4.9443633391989001e-03  4.9684441455178838e-04  2.3728447089598413e-05  -4.9202462871258167e-03  -1.2528301259106043e-02  -2.3401987502179054e-02  -3.9233348077766128e-02  -5.8918748400793051e-02  -8.1813833650566312e-02  -1.0920156090883500e-01  -1.4006141473213515e-01  -1.7095069946401695e-01  -2.0317394425026802e-01  -2.3448630786084854e-01  -2.6330806611228197e-01  -2.8864839530409997e-01  -3.0886745587184511e-01  -3.2055743212173976e-01  -3.2601453452444357e-01  -3.2646604562675291e-01  -3.2626509450184993e-01  -3.2789909769982062e-01  -3.2845269000002114e-01  -2.9050419606910294e-01  -2.4124572351825310e-01  -1.8812018181175263e-01  -1.3740223505975441e-01  -8.9971683371366684e-02  -4.4961586594778960e-02  -4.1957592341446502e-06  4.4953676007838103e-02  8.9964044036040872e-02  1.3739507059118858e-01  1.8811341486754263e-01  2.4123892198646010e-01  2.9049997579099190e-01  3.2845168787014356e-01  3.2790122266688571e-01  3.2627227874465903e-01  3.2648054742490445e-01  3.2603964530447832e-01  3.2059805398968599e-01  3.0892887169034788e-01  2.8873696322631653e-01  2.6343144237960525e-01  2.3465174573246972e-01  2.0339083513737513e-01  1.7122377614062045e-01  1.4039368751863382e-01  1.0958574896208848e-01  8.2238770193545710e-02  5.9357974507568974e-02  3.9652103582989075e-02  2.3755497636349324e-02  1.2772734272416091e-02  5.0223342714055905e-03  -7.5671776421753294e-05  -6.9002239500087889e-04  -5.0824939643756414e-03  -8.0944859253119748e-03  -9.0458718705929506e-03  -5.3095837121455436e-03  -5.1746354587879108e-03  -2.2856207281115393e-03  1.9443687357321884e-03  2.6124123527880472e-03  9.3811053038235677e-04  1.3771319543207903e-03  1.6297807196858402e-03  2.6349193110051634e-03  2.1455650026793549e-03  5.2767883993827943e-03  2.0393993312674869e-03  -2.3107421046317305e-03  -3.8124217073043187e-03  -1.8051887178167324e-03  -1.1136698638324030e-03  -3.6842768859673075e-03  -2.1642346030789450e-03  4.0439474983958697e-03  1.7185445179414810e-03  -1.0000138032281980e-03  3.3340395408310080e-03  4.1922230071386162e-03  1.8082482802883521e-03  1.3703819636893713e-03  1.5410872921756899e-03  -4.9185141009697934e-04  -2.5073487988751023e-03  2.2227495727601587e-03  1.0401427241856164e-03  -2.4679142534994578e-03  7.2111446777027479e-04  2.0450227554505537e-03  -9.8229712832955188e-04  -1.5552904252533952e-03  1.3212010825428017e-03  3.3622610479431369e-03  6.7412224464829108e-04  -9.5610148153710858e-04  -1.7566303387473330e-03  1.7066557941218538e-03  3.2967534824934548e-03  8.3259699979451526e-03  4.1430062427225559e-03  1.5255071767029713e-04  -2.0411561987452014e-03  -9.5363170066265141e-04  2.5215890238931486e-03  2.3234771351447643e-03  1.4005617339338658e-03  3.8960720012016828e-03  5.9200470064568189e-03  6.1602298931750371e-03  7.6838031873787257e-03  8.8397665123618528e-04  -4.0065920705519764e-03  -5.6044170914856225e-03  -1.2988322619127779e-03  7.0411669163331374e-04  4.6199952182788846e-03  2.4870984819148735e-03  -1.9411663179100462e-03  -7.0539833601373603e-06  -1.4641470824214508e-03  -4.7774469063198719e-03  -2.8671367721063864e-03  -1.2016422620026337e-03  -1.0256744301599518e-03  -5.0821002755851857e-06  1.9412754843960794e-03  2.3592413758039290e-03  1.6090006377484922e-03  3.5144263997291463e-05  -2.8211571462306451e-03  -1.0794917098829885e-03  7.6523778919917421e-04  9.5816611955226792e-04  3.7464137803422180e-03  6.3503448601550990e-03  2.3002306697750370e-03  -1.0779114518738430e-03  1.5515640603486940e-03  2.4547115775337054e-03  8.8963654454053231e-04  1.0680948427675763e-03  1.0524183805236823e-03  1.9949978541793640e-03  -7.8876673391215977e-04  -4.5215767799746398e-03  1.5827605562752838e-03  2.1928153581031846e-03  -1.8609392118803182e-03  -2.5450915970476541e-03  -7.1426164269889692e-04  2.3311819500882241e-03  4.8410307405840928e-05  6.8465280556554083e-08  8.9435676093931125e-04  -7.6861891443025606e-05  9.4128731755565231e-04  9.9432476442913131e-04  -1.6642877436507197e-04  5.1614808670373438e-04  -7.7683380589500708e-04  -7.1033524141474942e-05  -8.6457456991026482e-04  1.3638392179051427e-04  -7.1241821892833600e-04  -2.1838861109150132e-03  -2.6062645312233622e-04  1.6589381443513555e-03  -3.5787880270910202e-03  5.1287445739738795e-04  -1.2542494721723562e-04  -2.9104019492725658e-04  8.6187267106024932e-04  -7.0980115217963383e-04  8.2452381884081446e-04  -1.1276057296055219e-03  8.0422198677223666e-04  8.7436908275801068e-05  9.3986115903144866e-04  9.0633474236721258e-04  6.5702431306348592e-04  5.3812362682002920e-04  -2.3853748427597377e-04  -3.4508169538879165e-04  1.3667819047669717e-03  1.6141419415837091e-04  -2.0808722938411576e-04  8.1531221049622776e-04  -1.6787851936871164e-03  2.6018571448277916e-03  5.6016445644042272e-04  -9.7820637624543533e-04  1.0033665931790704e-03  -3.7013127625757730e-04  1.0229290354634242e-03  -3.9285103676189826e-04  -1.7398091379347707e-03  -1.8105128878563835e-03  5.5076276021081053e-04  1.1333338506918104e-04  6.8215790908169715e-04  -2.3700230877799602e-05  1.9953706052757325e-03  -1.3036696236212704e-03  1.2380855127931670e-03  8.5876154774899751e-04  -2.0463695506596430e-03  -4.1931746121098404e-06  1.6030959022630021e-03  -2.4583922662961799e-04  -1.1281584859934900e-03  8.6165195838058676e-04  -8.1866607575862334e-04  6.7850475600985825e-04  -1.4864264223953287e-03  -1.3575956860546238e-03  1.8398783033767958e-03  4.3793065056699766e-05  -1.2468669254177549e-03  7.8086203716115252e-04  -2.4320673872281016e-03  -6.2596620595914659e-05  -1.0837637011934860e-03  1.7042382711065080e-03  -1.0841713442386399e-03  -1.8624492894376912e-04  -3.5041133650629205e-03  2.3565966434410530e-04  4.4023924929426144e-03  1.0265661608479235e-03  8.9483004430796311e-04  -4.2728525863989998e-04  9.3691011813978344e-04  -6.5679197595107884e-04  -9.6952556633000400e-04  -1.8310522726694284e-03  -2.2001466657615874e-03  3.9488279893310358e-04  4.0020107538901555e-04  8.7668138886600638e-04  -3.2860679375925636e-03  2.7416487525273154e-04  3.8713612696868053e-04  -6.5043153086353177e-04  -5.9988948455060780e-04  -3.1440983420398397e-04  2.9061189062716958e-03  -1.5319718330370261e-03  -2.0170404897665675e-04  8.7903306661661358e-04  3.5205683249315287e-04  1.3512092065088015e-03  -9.0000501964586954e-05  1.1020254072714893e-03  -1.8711875523365782e-03  8.3071377416898008e-04  -2.7885941888943873e-03  1.9217242975725344e-03  -1.5283407922405835e-03  -2.8153081011032676e-03  5.3150253223772223e-05  6.1118153019280017e-04  -2.3855482298938352e-04  -2.2638676576657059e-04  -6.8277219672962543e-05  -8.9233222393645306e-04  6.6962932184577858e-04  1.0627813145157375e-04  -1.4259749103245572e-04  -3.9827090734705024e-04  1.0429994953508024e-03  -5.5614306393222609e-04  6.2382404574910886e-04  1.0710723843587093e-03  -3.5221968991297568e-04  -8.7699898177191281e-06  9.6579043920154482e-04  1.0473616638198454e-03  1.0496349653804572e-03  8.6684828483628946e-04  -2.1263543959500406e-03  3.4090956626674647e-03  1.5030746687945537e-04  -1.2675198268808442e-04  8.3457660857991418e-04  1.4649836676253183e-03  1.5642773781653935e-03  6.1658819244426121e-04  -2.0728467314071601e-04  -2.5438280993967314e-03  1.1051135592335268e-04  1.2191637438669866e-03  3.4172296640786094e-04  2.2064887503836080e-04  2.8896535796845736e-05  1.6786105117530604e-04  5.6716606936479388e-04  9.5240933422267068e-04  -1.9272660628721935e-03  3.7624252251805800e-04  -3.6471468802925165e-06  -6.3010867449441496e-04  2.8587530844771252e-04  2.7443774083572511e-04  5.0629780404504361e-04  -1.5299882622798035e-04  -2.5737455652552905e-04  9.4271830868333762e-04  -1.2755634558176332e-03  1.7441437368743015e-03  -2.7753387817545629e-04  7.9058364517753962e-04  5.4319822878294175e-04  5.9293512019064699e-04  -1.6584107083481611e-04  3.2068696541893537e-04  2.4791193654281093e-04  2.8772683458284398e-05  -5.8415367363185973e-04  -5.0452735045698369e-04  -5.1341948524290910e-04  2.4091073084915871e-03  3.2290934470531439e-04  1.1031776094519829e-03  1.3880165578600962e-03  -3.7133142887456529e-03  -3.2142359906775072e-03  4.3465716546302489e-03  -1.0379123238778716e-05  -7.1141734794832553e-04  4.3022485571566824e-04  1.6277815377265489e-03  1.7831909131275504e-04  1.5311161613111074e-03  -1.9212737240894959e-03  -4.9319544079045002e-04  -1.8888075965283007e-03  2.7484410677306999e-03  1.3205934464783472e-03  1.0903657784379552e-03  -2.3650068839680136e-03  -1.7131568353925424e-03  -9.3401646571771035e-04  -6.6423856493406691e-04  6.9639314130903707e-04  3.1335386300976526e-04  -1.7118252306728309e-04  -1.3058537960295201e-03  -9.1076843756616408e-05  -7.7879547855893606e-04  -2.3683026741969327e-03  -3.0876833214496008e-03  -1.1368684551252538e-03  -8.4566095146864197e-04  1.4737304179365284e-03  1.9032750617366896e-04  4.2231932282248000e-04  -6.9104932711257043e-04  -9.2893039573978676e-05  2.0487013010898523e-04  -1.7623251365582724e-03  1.4766686512763809e-03  -9.6371003637077000e-04  -1.6699362216436337e-03  -9.5152034370051984e-04  -2.8189134278967652e-05  -6.9803674976883206e-04  1.1831438462144426e-04  -2.4314134265512551e-04  -3.2762558007429866e-04  -5.0911135750060044e-04  -2.6892568354710089e-03  -2.4159463765872618e-03  -7.3747379251671945e-04  4.2013620203478267e-04  4.8703794953374867e-04  -1.7063760199457390e-03  4.2572927053963016e-04  1.1918381848339270e-03  6.9670891509829508e-04  7.4456856810314670e-04  3.3106716234080789e-04  -1.3867211606656670e-03  -3.9056524345107950e-04  2.4242154428340645e-04  -3.7192130828915396e-04  1.1509741481490325e-03  -4.3502320679715165e-04  1.6663805669924112e-03  -7.5650505416455444e-04  1.4062448298410252e-03  8.6647178740364506e-04  1.0582208831373028e-03  1.1041275214309346e-03  -1.7769036549538674e-03  1.7572786725952726e-03  -3.1989323301333873e-04  -1.2615606558288132e-03  -1.4042988950504626e-03  2.5525308900736256e-04  1.5922842662559925e-03  -2.9701280741409959e-04  -2.3090910033826224e-03  3.7049471623671888e-03  -1.3333926013923538e-05  1.3133758498921901e-03  8.4467678286506351e-04  -9.1199485770691380e-04  1.8064259026384180e-03  -1.4052063077227667e-03  -2.9066160969247073e-03  -1.0704168711836635e-04  3.4710515210360272e-04  -3.0271051878302834e-04  8.3738696702050804e-05  1.2129646547679751e-03  -2.2615565786683754e-03  -7.3766623713893565e-04  4.9410097354278515e-04  9.8940965596852514e-05  -1.6555965970431271e-04  5.2545151517570843e-04  2.3816962605463783e-03  -1.2366532594089230e-03  -3.1486328626502500e-03  1.2906341132592469e-04  -1.4342001802086419e-03  -5.4805584463454171e-05  2.3510014944344345e-03  -1.3289187640472559e-03  -7.6816264781342440e-04  4.4421514865461160e-03  3.5798841610012765e-05  -7.2424052263891762e-04  -1.1974677555001925e-04  7.2342222412104284e-04  -2.0225862187454925e-04  3.0008150204978283e-04  2.7929329764183177e-04  -1.8542205356500748e-03  -4.1515295918242260e-05  1.0602280907493050e-04  8.4419196065444087e-04  3.4438608013836211e-04  2.0278116649796412e-04  -1.7156433459340323e-03  1.3438814771720036e-03  1.5831907163211384e-04  3.3021011218181218e-04  -4.3674090295293385e-04  2.2610277330538421e-03  -1.5704580814255857e-03  -4.3746672379055421e-03  1.78