<?xml version="1.0"?>
<VTKFile type="UnstructuredGrid"  version="0.1"  >
<UnstructuredGrid>
<Piece  NumberOfPoints="2907" NumberOfCells="5077">
<Points>
<DataArray  type="Float64"  NumberOfComponents="3"  format="ascii">-20 2.5 0  -20 0 0  -1 0 0  -0.9996988186962042 0.02454122852291233 0  -0.9987954562051724 0.04906767432741797 0  -0.9972904566786902 0.07356456359966773 0  -0.9951847266721968 0.09801714032956083 0  -0.99247953459871 0.1224106751992163 0  -0.989176509964781 0.1467304744553618 0  -0.9852776423889412 0.1709618887603012 0  -0.9807852804032304 0.1950903220161286 0  -0.9757021300385285 0.21910124015687 0  -0.970031253194544 0.2429801799032641 0  -0.9637760657954398 0.2667127574748985 0  -0.9569403357322088 0.2902846772544624 0  -0.9495281805930367 0.3136817403988914 0  -0.9415440651830207 0.3368898533922203 0  -0.9329927988347388 0.3598950365349883 0  -0.9238795325112867 0.3826834323650899 0  -0.9142097557035307 0.4052413140049899 0  -0.9039892931234433 0.427555093430282 0  -0.8932243011955152 0.4496113296546069 0  -0.8819212643483549 0.4713967368259979 0  -0.8700869911087113 0.4928981922297841 0  -0.857728610000272 0.5141027441932218 0  -0.8448535652497071 0.5349976198870972 0  -0.8314696123025453 0.5555702330196022 0  -0.8175848131515836 0.5758081914178454 0  -0.8032075314806448 0.5956993044924335 0  -0.7883464276266062 0.6152315905806269 0  -0.773010453362737 0.6343932841636455 0  -0.7572088465064846 0.6531728429537766 0  -0.7409511253549589 0.6715589548470186 0  -0.7242470829514668 0.6895405447370671 0  -0.7071067811865475 0.7071067811865476 0  -0.6895405447370669 0.7242470829514669 0  -0.6715589548470184 0.740951125354959 0  -0.6531728429537765 0.7572088465064847 0  -0.6343932841636454 0.7730104533627371 0  -0.6152315905806267 0.7883464276266063 0  -0.5956993044924334 0.8032075314806449 0  -0.5758081914178453 0.8175848131515837 0  -0.555570233019602 0.8314696123025455 0  -0.534997619887097 0.8448535652497072 0  -0.5141027441932217 0.8577286100002721 0  -0.492898192229784 0.8700869911087115 0  -0.4713967368259977 0.881921264348355 0  -0.4496113296546067 0.8932243011955152 0  -0.4275550934302819 0.9039892931234434 0  -0.4052413140049897 0.9142097557035307 0  -0.3826834323650897 0.9238795325112867 0  -0.3598950365349882 0.9329927988347388 0  -0.3368898533922199 0.9415440651830208 0  -0.3136817403988914 0.9495281805930367 0  -0.2902846772544622 0.9569403357322089 0  -0.2667127574748983 0.9637760657954398 0  -0.2429801799032639 0.970031253194544 0  -0.2191012401568697 0.9757021300385286 0  -0.1950903220161282 0.9807852804032304 0  -0.1709618887603012 0.9852776423889412 0  -0.1467304744553616 0.989176509964781 0  -0.1224106751992162 0.99247953459871 0  -0.09801714032956065 0.9951847266721969 0  -0.07356456359966733 0.9972904566786902 0  -0.04906767432741801 0.9987954562051724 0  -0.02454122852291214 0.9996988186962042 0  6.123233995736766e-17 1 0  0.02454122852291226 0.9996988186962042 0  0.04906767432741813 0.9987954562051724 0  0.07356456359966745 0.9972904566786902 0  0.09801714032956077 0.9951847266721968 0  0.1224106751992163 0.99247953459871 0  0.1467304744553617 0.989176509964781 0  0.1709618887603014 0.9852776423889412 0  0.1950903220161283 0.9807852804032304 0  0.2191012401568698 0.9757021300385286 0  0.242980179903264 0.970031253194544 0  0.2667127574748984 0.9637760657954398 0  0.2902846772544623 0.9569403357322089 0  0.3136817403988916 0.9495281805930367 0  0.3368898533922201 0.9415440651830208 0  0.3598950365349883 0.9329927988347388 0  0.3826834323650898 0.9238795325112867 0  0.4052413140049899 0.9142097557035307 0  0.4275550934302822 0.9039892931234433 0  0.4496113296546066 0.8932243011955153 0  0.4713967368259978 0.8819212643483549 0  0.4928981922297841 0.8700869911087113 0  0.5141027441932217 0.8577286100002721 0  0.5349976198870973 0.844853565249707 0  0.5555702330196023 0.8314696123025452 0  0.5758081914178453 0.8175848131515837 0  0.5956993044924335 0.8032075314806448 0  0.6152315905806268 0.7883464276266062 0  0.6343932841636455 0.773010453362737 0  0.6531728429537768 0.7572088465064845 0  0.6715589548470183 0.7409511253549591 0  0.6895405447370669 0.7242470829514669 0  0.7071067811865476 0.7071067811865475 0  0.724247082951467 0.6895405447370668 0  0.7409511253549591 0.6715589548470183 0  0.7572088465064846 0.6531728429537768 0  0.773010453362737 0.6343932841636455 0  0.7883464276266063 0.6152315905806268 0  0.8032075314806449 0.5956993044924334 0  0.8175848131515837 0.5758081914178453 0  0.8314696123025452 0.5555702330196022 0  0.8448535652497071 0.5349976198870972 0  0.8577286100002721 0.5141027441932217 0  0.8700869911087115 0.492898192229784 0  0.881921264348355 0.4713967368259976 0  0.8932243011955153 0.4496113296546065 0  0.9039892931234433 0.4275550934302821 0  0.9142097557035307 0.4052413140049899 0  0.9238795325112867 0.3826834323650898 0  0.932992798834739 0.3598950365349881 0  0.9415440651830208 0.3368898533922201 0  0.9495281805930367 0.3136817403988915 0  0.9569403357322088 0.2902846772544623 0  0.9637760657954398 0.2667127574748984 0  0.970031253194544 0.2429801799032639 0  0.9757021300385286 0.2191012401568698 0  0.9807852804032304 0.1950903220161282 0  0.9852776423889412 0.1709618887603012 0  0.989176509964781 0.1467304744553617 0  0.99247953459871 0.1224106751992162 0  0.9951847266721969 0.0980171403295606 0  0.9972904566786902 0.07356456359966743 0  0.9987954562051724 0.04906767432741801 0  0.9996988186962042 0.02454122852291229 0  1 0 0  20 0 0  20 2.5 0  0 2.5 0  -10 2.5 0  10 2.5 0  -10.5 0 0  -5 2.5 0  10.5 0 0  5 2.5 0  -5.75 0 0  5.75 0 0  -15.25 0 0  -15 2.5 0  15.25 0 0  15 2.5 0  -17.625 0 0  -17.5 2.5 0  17.5 2.5 0  17.625 0 0  12.5 2.5 0  12.875 0 0  -12.5 2.5 0  -12.875 0 0  -2.5 2.5 0  2.5 2.5 0  -8.125 0 0  -7.5 2.5 0  8.125 0 0  7.5 2.5 0  -3.375 0 0  3.375 0 0  -18.75 2.5 0  20 1.25 0  16.4375 1.19375 0  -16.25 2.5 0  13.75 2.5 0  -14.0625 0 0  -11.6875 0 0  11.6875 0 0  8.75 2.5 0  -8.75 2.5 0  6.9375 0 0  6.25 2.5 0  -6.25 2.5 0  -9.3125 0 0  -6.9375 0 0  9.3125 0 0  11.25 2.5 0  -11.25 2.5 0  3.75 2.5 0  4.5625 0 0  -4.5625 0 0  -3.75 2.5 0  -13.75 2.5 0  14.0625 0 0  -16.4375 0 0  -20 1.25 0  -18.8125 0 0  18.75 2.5 0  -18.21875 1.2359375 0  18.125 1.278125 0  -15.84375 1.2125 0  -14.375 1.30859375 0  14.65625 1.203125 0  2.1875 0 0  -2.1875 0 0  13.125 1.315625 0  3.125 1.315625 0  -3.125 1.315625 0  -12.28125 1.1890625 0  -5.15625 1.184375 0  11.09375 1.184375 0  5.625 1.325 0  -10.97262068800044 1.220713793599868 0  9.375 1.32734375 0  -6.875 1.32734375 0  -9.67626828410207 1.24449497187193 0  8.061334925608099 1.312208731402025 0  -8.188665074391901 1.312208731402025 0  -1.25 2.5 0  1.25 2.5 0  4.37465139623265 1.41327350462657 0  16.25 2.5 0  6.84375467392576 1.430449641528851 0  -1.846573640185365 1.334702047669377 0  1.846573640185365 1.334702047669377 0  -17.02955351149946 1.396129584721571 0  16.4375 0 0  18.8125 0 0  -13.31314667860176 1.511193493282891 0  -4.122005747945582 0.961844908681634 0  12.12799425205442 0.961844908681634 0  15.54930641305724 1.660405980876393 0  19.0578783583929 0.9559530595267438 0  8.71875 0.6864560603786576 0  -7.53125 0.6864560603786576 0  -0.6257799091428727 1.819008129832856 0  0.6257799091428734 1.819008129832855 0  6.291331569065717 0.7194652423646902 0  -19.11204717950418 0.9044926794710327 0  -4.488713231834613 1.772186102355655 0  11.76128676816539 1.772186102355655 0  -19.28185607205105 1.781856072051052 0  19.30868080343342 1.808680803433421 0  9.90625 0.6371857066656857 0  -6.34375 0.6371857066656857 0  3.796921710049233 0.7617406159238448 0  7.392020585015773 0.7480839107774819 0  -8.910372062800235 0.7929553447587234 0  10.2506781820361 1.451853913138859 0  -5.999321817963904 1.451853913138859 0  4.957643119381741 0.7716423099297361 0  17.29984375 0.8640625 0  15.41193625859067 0.8279888354083842 0  -13.72251704931534 0.7728002662082776 0  16.875 2.5 0  17.12178336313261 1.690954734835967 0  -11.64001625260176 1.74572103154608 0  2.477726735235857 0.7850262278604345 0  13.46875 0 0  13.765625 0.7802887470308788 0  -2.78125 0 0  -2.477726735235857 0.7850262278604346 0  -10.33383379274331 1.744431431923121 0  13.91957519050334 1.653419259628842 0  -15.08147780274903 0.8341506893754731 0  -15.14066649024666 1.671962869821843 0  -8.950686484882164 1.678622661163363 0  -17.55392917606836 0.794731598412167 0  -16.80247533599675 0.6688259240674158 0  -12.94289066923278 0.7766744225472476 0  -9.90625 0 0  -10.31601468672093 0.7730817089126454 0  -18.21875 0 0  -12.28125 0 0  -17.68515668569534 1.768907656575843 0  18.21875 0 0  10.85059123027421 1.880344717307101 0  -5.399408769725794 1.880344717307101 0  -3.738137326223278 1.749164834446819 0  -3.125 2.5 0  12.46235897590077 1.601301060091387 0  -11.09375 0 0  -11.61661448001209 0.7781698802173554 0  -15.625 2.5 0  -1.764022608759088 0.6027229563180789 0  1.59375 0 0  -8.125 2.5 0  8.125 2.5 0  8.713468311289519 1.727645658498745 0  9.375 2.5 0  -7.536531688710481 1.727645658498745 0  -6.875 2.5 0  14.375 2.5 0  17.78381794101733 1.874391370085592 0  18.59891476281433 1.80649740393129 0  -18.58835555265984 1.824268641341969 0  1.806126122135773 0.6510673837470153 0  -16.875 2.5 0  -16.36681393636619 1.755298393865037 0  -16.13072438662071 0.6014017614895231 0  -13.92460230791385 1.83195710210235 0  -14.40198779087891 0.6105385965811564 0  20 0.625 0  19.40625 0 0  14.6875 1.888836596385542 0  14.65625 0 0  12.78248197181444 0.6991460920542635 0  -3.467518028185561 0.6991460920542635 0  13.125 2.5 0  2.491957142932539 1.738660596534321 0  3.125 2.5 0  1.875 2.5 0  3.718973573227002 1.75927763286174 0  -2.491957142932539 1.738660596534321 0  -1.875 2.5 0  -9.375 2.5 0  6.2001972846108 1.772767401802766 0  5.625 2.5 0  5.027483518098582 1.760895488350309 0  5.625981449127788 0.6566963631252629 0  -12.30101114679273 1.859484693920165 0  9.742489932362783 1.884363450023167 0  -6.507510067637216 1.884363450023166 0  1.13492303295015 1.283502262067074
[...]
<PointData  Scalars="f_8117191"> 
<DataArray  type="Float64"  Name="f_8117191"  format="ascii">-5.5063852992185509e-05  -1.1989697796987122e-05  -1.7585510931425761e-05  -4.2477208381673292e-05  -8.2556047729654542e-06  1.0777906205758503e-05  2.7390524501553335e-05  -9.6455490846583834e-06  9.5786376453448310e-05  1.0638327692317631e-04  1.7101926427178984e-03  2.1889522983669496e-04  1.1624340199847901e-04  4.8745257897813323e-05  -1.4961964517717071e-05  1.4485882746666073e-06  -3.2354103968464193e-06  1.3918998059903615e-05  2.2419719668966964e-05  7.3137728527350607e-06  9.3171317912447374e-06  6.6515156519793555e-06  1.6027643279916738e-05  1.3478278193520141e-05  4.4187051874141085e-06  1.0674030486035974e-05  2.4129441428579364e-06  1.1784828131919408e-05  -9.6479048557458861e-06  2.5903373828652660e-05  1.1736666479526189e-05  4.5963034206052606e-06  -3.4388079452918362e-07  3.2244129782226000e-05  1.8038303322754394e-05  3.9817884810823246e-06  2.9761592926767057e-05  1.4838799552068243e-05  6.3415191394862861e-06  2.2826409821932901e-05  4.9863702457936934e-06  5.4451011423512263e-06  9.7374140896700258e-06  3.3787914880848346e-05  6.1484787186799397e-05  7.8731903401866947e-05  1.2539009822988738e-03  5.3018033791930896e-05  3.4885736149034907e-05  8.5622184974798175e-06  1.0961673998960566e-05  -2.5570665163311652e-05  4.8777408179482365e-06  2.8654852459786659e-05  2.5925295643607621e-05  6.4497324309731145e-05  2.0629139712688987e-05  3.5130527798461468e-05  5.8097967726919360e-05  -8.1314998795651557e-06  2.4867754283138408e-05  1.9552317066907199e-05  -1.3491202030035501e-05  3.3182214856758600e-05  1.4338249437696988e-05  -9.2017743335958251e-07  -1.5626697714691062e-05  -4.9855033092137369e-06  1.9956835232997276e-07  3.8398809395944305e-05  -2.3156687938377881e-05  -6.8964566832694835e-05  1.7681322462067439e-04  -2.1201187130383955e-05  -6.8368733326279972e-07  -1.7577052430582836e-05  3.6592876664860197e-05  -1.0220921832085604e-05  -3.3804411582418126e-04  1.6733792178831563e-05  -3.6104381096411303e-05  -4.8723679638247721e-06  -4.1540477359340609e-06  3.6821891950046312e-05  -1.5578599224397785e-05  -3.0111384331079481e-05  -3.7655202981368839e-05  -6.7271377473813376e-07  -2.2836992090098775e-06  6.2630887276284719e-06  -3.9032051938871086e-05  -2.3390916069744737e-05  -2.1406950336737522e-06  -3.4712389397428528e-06  -4.9156157121936523e-05  -1.1744373562830600e-05  -1.7565913179683145e-05  -6.9650020758361378e-05  -6.0780817684523093e-07  -2.2580512454707592e-05  -1.1076705297163617e-05  -3.7863931406943861e-05  4.5001592079356754e-06  -2.0512533544126045e-05  2.3608818391906138e-06  -6.4901843286758586e-06  -1.8566064701834732e-05  -3.3591831358238650e-05  -3.6770602705874956e-05  -3.1258822736498199e-06  -2.9705022329132912e-05  -2.7439932587044796e-05  -2.3027707029748092e-04  -1.0720722134350291e-04  -1.1127865866534411e-04  -1.4915394059711504e-03  -2.3257875882608923e-04  -1.3928069445880912e-04  -6.0790440019278134e-05  -2.6802612162876246e-05  -3.0428110069501932e-04  -3.8178625928344005e-04  -1.9570750316080134e-04  -1.4808841655928131e-04  -2.5913306269970615e-05  -5.6910864111222920e-05  -5.8885579499429843e-05  -2.1149085650837979e-04  -1.3302491063328062e-04  -6.1773611087588998e-05  5.4421596173480252e-05  1.3769805863684787e-09  7.2313694648018365e-10  -1.7763009042614290e-02  5.2039728621003277e-10  -4.8346902781172216e-08  -1.1049207586518589e-08  -2.7637057181145090e-04  8.4566425195242442e-08  5.1704981250833319e-04  1.7745113490396412e-05  -1.4488267586226100e-04  -1.8611811166456669e-06  7.3459837573484981e-06  6.7152652322126264e-10  -2.5927454674015139e-10  3.3438851881432980e-06  3.8122687754834886e-05  2.0609179563540442e-09  2.3687204008712101e-10  -8.5563590484638562e-08  2.5295284900480227e-08  1.3493479800510204e-07  3.0913707244052886e-07  -8.6909081385224234e-03  4.1988562016941223e-03  -2.7340799981432874e-06  -2.2383394024563286e-06  -9.9426197199071515e-06  2.3924165212358652e-05  1.6168391938729825e-03  -6.0477226168917755e-04  3.8196215166794877e-06  2.9555399289100115e-09  1.3446116706498952e-08  1.4973850226662812e-05  -1.2968003806791658e-08  -1.1715431888110924e-06  -1.8661987022135897e-08  4.8789292596461808e-09  2.6352034568881988e-06  -2.6768247865087061e-07  -3.4867792171195872e-05  8.7966813297970045e-05  -2.0730619633408148e-05  -3.9489348940231160e-07  -1.6164098533518939e-05  -8.6497172958304329e-07  -1.6809174264605824e-07  5.8216213359936157e-08  2.8692083737280470e-03  -4.3714900492830528e-04  2.2135358559431247e-04  -1.2993766306169015e-03  1.1480320636711705e-06  4.7137694235821005e-09  -5.6695052208668836e-06  3.6649082575457520e-04  9.4379401893711045e-06  1.0800001588242468e-09  -1.1427431266099817e-03  1.6205876289251881e-09  -3.7385446243262341e-04  -8.8560353110482239e-05  1.6622300889308207e-07  -3.2101645805322032e-03  4.5823124699776634e-03  9.5057778427746961e-07  -1.0866565501281911e-01  9.6424051159792329e-02  -9.1021823977789809e-06  6.8945601757754958e-03  5.2610877320584744e-06  -8.7442055644776258e-03  -1.4438153446532164e-06  -1.6254933916087423e-05  4.7970958786027867e-04  4.3990182424398926e-06  -2.8146155102435694e-04  5.6900548435389239e-05  -6.4702481244318351e-03  4.8544977720104852e-03  -3.3367484056287811e-02  -2.0164927160918021e-10  -1.7003163663043591e-03  3.6970586456889254e-01  -3.6868782951421192e-01  -8.8926313725799430e-04  1.7059153419614871e-10  1.8490864310420762e-09  -2.2456358935123085e-05  3.1044316644868411e-02  2.7299979654345667e-06  2.7268035294875063e-08  3.4527591704518778e-09  -8.3891688563254862e-05  2.0059926374072482e-04  3.3937739243540505e-01  -3.6198596836334512e-01  -3.6127265640148397e-03  1.6692523464096097e-03  9.0232023062631755e-03  1.9385349726752699e-06  1.5440049870625997e-03  1.3185361256489112e-08  -1.4678087163191832e-06  1.1583061097502976e-03  -5.0120365871333172e-02  -8.5015503270472652e-04  2.2609989648384960e-05  3.2276979219659483e-06  1.6490472677237709e-03  -1.7267221699517558e-02  1.5345423255978374e-09  5.7692987469828177e-08  -4.5315179693581794e-05  -2.6289350527531177e-10  1.7768887269126433e-09  -2.2425755571198159e-06  -1.7389123157107150e-01  -1.0679526940847686e-08  4.8495307230983220e-07  1.8529867770019487e-03  1.9328650588392943e-01  9.6280059409626074e-08  2.7235780126880644e-07  -1.8054110504888679e-04  -1.3136998738688991e-04  8.5770149990527516e-06  -1.0154169921498867e-03  -6.2985628929941725e-04  -1.9609970099358610e-05  1.2589853977065093e-07  9.3199842361587864e-07  -1.6807728993932978e-07  -2.0341124966674466e-07  -9.3793316273127242e-04  -2.1379347967155937e-10  2.5208852438657835e-06  1.8582088234812316e-03  2.6023381686747320e-02  -3.2400355475301857e-03  1.3452916173525659e-06  5.0997994991530643e-08  -3.8996982141165414e-06  7.3834839117869515e-06  3.0888004330397650e-01  2.1589056906409296e-04  -2.0620102975088287e-06  7.8383425763846117e-06  -4.3224531905028179e-05  -4.1281458645302308e-08  8.6612437172183183e-05  -1.2414936849130898e-05  -9.3017020762208939e-09  1.5530311308642723e-09  3.8820050472527119e-09  -8.7729051795261903e-04  -3.1680755712348541e-01  1.7567135114314363e-05  -3.6399341870745880e-04  -3.7157365669756887e-04  -2.6386556402792446e-05  -7.9578961623446971e-05  -1.6438888912065747e-09  -3.9900767394505966e-11  6.4567620267695483e-08  -4.6380454212613627e-09  1.3224300217390240e-06  6.3307664172039618e-02  -1.9157107584866623e-08  -1.6370611961041220e-01  3.8303054172253766e-03  6.9830969737867130e-03  -4.8252780952555474e-02  1.2880058821228316e-01  -1.2708465062907253e-02  -1.1105201032603933e-07  -2.5000048907056044e-03  4.8110955810279132e-04  -1.1543656057865680e-02  -7.6471487161371933e-03  -3.7956481514061942e-06  -9.1006413773729994e-07  3.2205160813167139e-04  -5.7939780369265392e-01  6.3505165562066024e-01  3.7227954489640528e-06  1.1905686374664043e-02  4.7362875359243095e-06  3.3222462560141153e-03  8.9478406018498031e-09  -7.5714949678488311e-02  -4.9722719978997164e-11  1.8021689585682607e-08  6.9271608454068916e-05  -2.7840308470754494e-04  -4.0836409918064605e-04  2.2797623980275419e-01  -1.8435929079605579e-01  -6.3077613038064706e-07  1.4579429672870138e-08  -7.3500094049073485e-04  1.0513740376679850e-06  6.6908519163853621e-06  2.1020526305256908e-09  6.4607165266235281e-05  1.5013776203257938e-07  -2.3434703129118512e-04  -1.7510974846042933e-05  3.7572572950988695e-04  1.0734402868445647e-06  4.6608929814821205e-05  1.7301693849425090e-03  1.8588563407632566e-02  2.9688837007029797e-08  -1.0464625401913755e-09  1.7797880035586300e-07  -3.0566173978001875e-04  -6.3826769805433256e-08  -8.6242857940629079e-04  -2.9469351817559473e-02  -7.6728334889206449e-03  -2.5058462541254802e-09  1.0618071639408259e-03  3.3521472704553095e-09  -2.3287291622424094e-09  -1.9844052905576741e-07  -1.6645419022619388e-05  -1.8247667043853771e-04  -1.3152783897377382e-06  4.6877359671822938e-09  1.5302497286824021e-04  9.6518400458394815e-08  1.1120283267816145e-07  -4.4706633262143470e-05  1.1804065627569113e-05  -1.0055498570071671e-04  -8.5007019004839611e-06  4.6664078953534795e-04  -2.0639308099960065e-05  -4.4112416088154798e-04  -3.1523185454256378e-07  -1.3930184278139464e-07  2.3633393654087654e-04  4.1019985716943424e-07  1.0328383910032225e-05  3.1272213361408906e-04  2.6111383041943847e-05  2.1533037855986697e-07  4.9698787413986069e-05  6.3108643103052208e-07  1.5525597777311964e-06  -1.1175383298854731e-06  1.7427746502429246e-06  1.2666514998805544e-03  1.7456915067683357e-09  -7.1157502136409867e-02  4.4015222157664186e-07  3.9240285190084843e-02  -4.4453185078587327e-03  -6.0671075683727340e-04  -6.4311552930722475e-10  -2.4896482694366846e-02  -1.9883114450005670e-04  -3.9434887600422233e-04  -1.5351952456878833e-03  2.9782738375981274e-08  -1.4084420915024333e-02  1.5275548653888576e-09  -1.6072977437185661e-05  -4.9114312502186500e-05  2.5102561082161466e-07  5.0362682826450859e-04  1.8398014192541409e-06  -6.0223854129147381e-06  -5.6629337259574120e-04  -1.5592158960404739e-04  1.4834172633664305e-02  3.8875576667991784e-06  5.4887169846838633e-02  -3.7592812369083243e-03  -8.1962156742017449e-06  1.5091352585072535e-04  -1.1058512078860453e-04  1.5722905012273758e-04  -8.7821290422658932e-06  4.5799119031200248e-07  -5.6589709441272080e-04  -7.1375334018560388e-04  8.0638230555877177e-10  1.7442471236917789e-02  1.9472767630540920e-06  8.0668754479623162e-09  7.5977548223764659e-08  -5.6308322859730267e-02  9.2996240371876912e-02  -1.6298100226813612e-02  4.0618585330459116e-09  1.7506620556857413e-08  8.7170406923207389e-07  4.3330915910413086e-03  -1.2832209298488057e-03  4.6652987132492087e-02  -1.3068212757526393e-01  5.3624563951043274e-08  1.2493189965225383e-05  -4.7113401422199874e-06  9.1950913720413532e-09  4.4472660051366231e-07  5.8974473960802611e-07  6.3606288459299731e-08  -4.1010854290196149e-05  3.4215522596231014e-07  -4.8368056242359103e-01  1.7728876418410713e-06  -1.7124143303982947e-01  2.3484412168620139e-01  6.4495759590578732e-04  3.8368748357147119e-03  2.0743204951864211e-03  -4.9597529009904196e-04  -1.0894456151543153e-09  5.1835180802239478e-01  1.9960891678938553e-01  -1.9510314320776126e-01  2.3200754392618911e-01  -1.7657261182260622e-01  -1.4836900143212624e-05  -9.3241490068086274e-05  2.5555651143845126e-08  -9.7446896011713930e-03  4.6743241991747957e-09  1.1695930891635077e-06  5.8112824741449469e-09  1.2991609566670883e-09  6.0480094884402721e-07  3.8214485542016312e-06  5.1541645518283297e-03  3.3207327067049026e-04  -4.1784716364647864e-05  2.0559473659584469e-03  1.3923743009129043e-06  1.7570940140713859e-07  -8.7471400667352557e-05  7.7536511840776452e-05  2.9136816177876856e-03  -2.7700275930972056e-04  -3.4743346437455151e-06  -7.0238798309460969e-04  -2.7143376809671618e-03  -6.3364393889547349e-03  -1.5405154915798409e-06  -1.7570389163737402e-04  2.6353790025952367e-09  1.6355381284503135e-02  3.6220538363397143e-06  7.5382326130834431e-03  2.5177522132162056e-06  2.2513902358578919e-02  4.4581552553601119e-05  1.1379615639093458e-05  1.0629043197442742e-05  2.2494216402067775e-09  5.7120179526138345e-09  2.0209209124599354e-05  8.5160360600531712e-02  -4.2627097943307976e-02  -2.0705140190725567e-09  5.4294655276111142e-06  2.9344507014918905e-06  2.1359003261868272e-03  1.0451198283210278e-03  3.7467650020851393e-03  -1.2846861870884789e-06  3.7233810308001143e-04  -1.8772292761283431e-04  9.1315043992338450e-09  2.8345398399640928e-05  1.2010392413062204e-04  1.0886777535920173e-05  3.1623251513055234e-01  6.4067236122311690e-03  -5.9033392184416563e-04  -1.6124709770599969e-03  2.1760164324403732e-06  -9.1977416098859758e-06  2.2940896721447334e-06  1.3738778413461199e-03  -7.5374593794386754e-02  -2.7243731480712186e-02  4.4940018865340676e-03  -2.8510003341173113e-02  -1.1961454464817955e-02  1.0966971786969126e-07  2.5264142698019992e-01  -9.0706635001338329e-04  1.2700006329491617e-06  2.7282997519147732e-02  2.1577574844659142e-01  7.4018949954941854e-09  -9.6343150370480955e-05  1.2589171577554569e-07  3.2639412306996904e-06  -2.7973521199727171e-04  -1.2574958751939962e-04  -1.2926986053798692e-04  -5.1180999830590687e-07  -1.8226368815113730e-06  3.9431674950892986e-03  2.3963193291870639e-05  2.5554552784199252e-06  7.8401761659367453e-06  -5.6114983683212516e-01  -4.1378072158501187e-06  4.3962214576181367e-04  -7.2703663471688097e-05  -2.5112039472182202e-05  -3.1909451388399466e-05  4.8489748926618448e-08  -1.0701780349737945e-04  -3.6144543598453499e-04  1.0538813962678180e-01  -8.5485694592801018e-02  1.7621469822857701e-04  -2.6091620177665375e-05  -7.6009602288163436e-10  -1.6101773771635884e-10  -2.3804510438532874e-04  3.5968446559371982e-06  1.3539380576712623e-01  -2.9919477915932757e-01  -2.2855612539335150e-03  4.0685501615191944e-07  5.7601009966860772e-01  9.8754642891376986e-03  -6.4896741741049327e-02  -9.6044621801433106e-09  1.3944784790000753e-06  8.3205172698410019e-04  1.7177749328662514e-01  2.0677247729483680e-03  -6.5340236168943861e-06  3.3355995074361202e-05  4.1539678235654105e-05  -3.2082284714843415e-04  5.1175577229893777e-08  7.7492443135681374e-10  -4.2448149939882793e-05  3.1511250400113920e-07  -5.5944030267697316e-07  -2.8204305182254798e-09  -3.3586232400199413e-05  -2.3904843325857852e-01  2.4491529199731530e-07  -8.0255507539120294e-03  -2.9190967678798021e-06  -1.2803696106897222e-01  5.1940937557138215e-05  -2.2984761214938187e-08  -1.2834669577311120e-05  6.5239606969921937e-08  -3.0389138041371971e-04  -4.1933484491189076e-02  7.2029492972368260e-05  -8.1419449898699242e-05  4.3668826431569665e-05  -1.0739471850316593e-03  1.9166046833469097e-08  -4.5223421370427800e-06  -5.3861872084192931e-07  -2.3683461672983890e-02  -1.0595561564453777e-06  -3.0684355443252181e-02  -5.3230446857545843e-04  -1.8778214222461048e-05  -4.9080057922211900e-01  -3.8990818816767864e-01  3.6645590729240715e-02  1.5067337381206466e-01  -2.4080352361070975e-01  -1.1677850919728455e-02  -2.3944458273448718e-09  1.6955597350209068e-08  -1.3611536361442414e-03  -6.6546040802752732e-06  -9.8020212407440679e-06  -1.3785171165086258e-05  8.9158336738927784e-10  -2.1376354566724810e-04  1.6407371409952775e-09  1.1633935091053107e-07  -7.9685597470451053e-04  2.2494849932168208e-04  -1.2617450442169739e-04  -1.1929215257379920e-03  3.7645834856422284e-03  5.3303697131074079e-01  4.5517093098450562e-01  -2.7213138539384334e-03  -5.3324669874694993e-06  -3.5316891676393853e-04  -8.2645799535221510e-04  -8.2872813380479270e-04  -1.8440060673281870e-04  1.2560883842343575e-04  -1.2432759786215634e-01  -2.3829171273347244e-02  -8.5342311990876558e-06  -1.6647330568834490e-03  -8.7843765978593097e-06  -1.4883623987614261e-01  4.5999564450303275e-06  -8.2605123473585311e-04  -4.4773679999363184e-04  -6.0229575466203087e-04  -4.5304549998946309e-01  4.7712618640982246e-08  5.5451086163215493e-02  2.7349437052798929e-05  -4.0542464010005349e-03  -2.7470140528392965e-02  6.4564876385355612e-10  9.3155335319362024e-05  -4.2959610090588851e-09  -2.9676004627859730e-04  -7.5137576220688646e-02  -9.5221222541891620e-03  -5.2859780045605702e-04  3.9132464543102297e-09  3.3534201539735802e-06  -4.8986306860901769e-05  -9.8360215524018681e-08  1.5883084183654563e-03  1.2285499947737530e-07  5.1154846916359441e-07  2.3019756071351858e-03  9.2273630549046803e-02  -2.3535402263484720e-07  1.0549638406941495e-08  4.8453464769166732e-01  -9.4018797561255135e-04  -3.9200688268977910e-04  -5.2021385148494784e-03  1.4743996277124699e-02  5.2962652935535071e-01  -2.6081544585964500e-01  -6.2776542094554161e-02  -5.1463058456823851e-01  9.8955548337198193e-07  3.3809809059646231e-09  1.4162448882534170e-07  2.9366894471596934e-06  2.5401402337347379e-03  -8.1232942193500399e-06  5.9802191982560465e-05  1.7307100485123388e-07  -8.1722659323058809e-07  -1.1445440052611116e-07  1.7172391644499547e-06  -1.1754032914065942e-04  -1.0378668078880740e-09  4.4465965418095269e-09  1.6145128760424132e-04  2.8709643753003236e-08  8.5997159482207268e-09  8.9144673465788862e-04  -3.5964179879936114e-04  7.2900347245202180e-09  1.9510930796523206e-06  4.6760604123021007e-02  9.3021207819061050e-02  1.3014304192968610e-06  -3.6770439034514884e-04  -1.7199138237814017e-04  7.4350225660302752e-07  -1.0272431927617808e-06  -3.9720959559406263e-05  5.3814061362401110e-06  5.7603498536219645e-03  -3.0700769708185526e-07  -5.2299152422702287e-11  -9.4181046799437747e-04  -3.0796844729511077e-04  4.3734669176031593e-06  -2.8073427368815853e-05  5.9216295021428027e-05  -5.5418816855333629e-05  -5.7877019158378333e-06  -2.2523865724374666e-05  1.5264738548506264e-06  2.1522178485185844e-09  1.0470134310365423e-07  2.0851641363506143e-08  1.5214761667296696e-08  3.7587058956773771e-03  -1.8786891963969757e-01  7.9480243653958926e-07  6.9322608901814648e-07  -1.7756997056605647e-06  -6.3706654010233863e-10  -5.7568613601718602e-10  3.1097297913314828e-07  -6.4983437368719629e-02  2.4346022595470628e-04  1.1538004205585435e-01  -4.4776383113209735e-05  4.7276788160813286e-06  1.0665166895343395e-02  3.1620829096880274e-06  1.9897955753691385e-02  2.1500260060083190e-06  9.4212236659537360e-03  3.2525864330915137e-04  -2.9122288562360261e-04  1.3936118015773263e-08  -5.5714343586132800e-04  -5.9299095748933072e-06  -5.6105719281102293e-02  -3.6122704201952911e-02  1.2548021887536332e-08  3.3176827679682247e-08  -2.3761814455150218e-09  -2.1479670525356358e-02  -3.8217034559548039e-03  2.3803931461406266e-07  1.4879691839539426e-06  8.1288430098905176e-04  3.8110783312525834e-04  -2.3747642632964718e-07  8.6421265329858052e-05  -6.8595123424934003e-06  7.0136834895924193e-09  6.2515294566511116e-10  1.2391679860211789e-08  3.2379768236547036e-06  -1.9815670355125757e-04  -3.2539799290108748e-07  -6.2047989468072592e-10  -5.8486996190980785e-09  -5.0368359219172083e-03  -4.8788225648389759e-05  -1.2423242160671725e-02  3.7519483898582247e-04  1.0459709568498478e-06  -4.8335077132628725e-04  4.2854073528078245e-05  -1.4867506120130598e-04  -4.0176008858661893e-08  -6.0429572539375073e-06  4.6026724738985596e-03  1.3620959333730304e-01  -9.0279189074138136e-02  9.9455526929874027e-02  -3.4032124930369174e-02  -1.1495284009705089e-09  1.6591712721876217e-07  -2.7343854115387153e-09  -7.1941572175112924e-07  6.1047006511881736e-06  1.2788184059633451e-05  -9.8220943057654067e-02  -4.8753589532820459e-07  1.0203217782877127e-03  2.0408278413581504e-08  -5.5449399472352397e-05  -1.4164836786204052e-05  3.3017031887683533e-05  3.5947477397471923e-05  -1.1559641499035421e-05  -5.5274920281060548e-02  7.9329820085435017e-10  -2.8933571781671957e-01  3.1499273055109916e-01  7.2650504504494771e-05  3.1171385309420714e-08  7.6921585537095404e-04  2.8264727939999193e-06  6.3840674046826791e-03  3.7890721535179894e-06  2.5710289581936754e-03  -1.2029268100920440e-04  2.8755055347799553e-06  