<?xml version="1.0"?>
<VTKFile type="UnstructuredGrid"  version="0.1"  >
<UnstructuredGrid>
<Piece  NumberOfPoints="2907" NumberOfCells="5077">
<Points>
<DataArray  type="Float64"  NumberOfComponents="3"  format="ascii">-20 2.5 0  -20 0 0  -1 0 0  -0.9996988186962042 0.02454122852291233 0  -0.9987954562051724 0.04906767432741797 0  -0.9972904566786902 0.07356456359966773 0  -0.9951847266721968 0.09801714032956083 0  -0.99247953459871 0.1224106751992163 0  -0.989176509964781 0.1467304744553618 0  -0.9852776423889412 0.1709618887603012 0  -0.9807852804032304 0.1950903220161286 0  -0.9757021300385285 0.21910124015687 0  -0.970031253194544 0.2429801799032641 0  -0.9637760657954398 0.2667127574748985 0  -0.9569403357322088 0.2902846772544624 0  -0.9495281805930367 0.3136817403988914 0  -0.9415440651830207 0.3368898533922203 0  -0.9329927988347388 0.3598950365349883 0  -0.9238795325112867 0.3826834323650899 0  -0.9142097557035307 0.4052413140049899 0  -0.9039892931234433 0.427555093430282 0  -0.8932243011955152 0.4496113296546069 0  -0.8819212643483549 0.4713967368259979 0  -0.8700869911087113 0.4928981922297841 0  -0.857728610000272 0.5141027441932218 0  -0.8448535652497071 0.5349976198870972 0  -0.8314696123025453 0.5555702330196022 0  -0.8175848131515836 0.5758081914178454 0  -0.8032075314806448 0.5956993044924335 0  -0.7883464276266062 0.6152315905806269 0  -0.773010453362737 0.6343932841636455 0  -0.7572088465064846 0.6531728429537766 0  -0.7409511253549589 0.6715589548470186 0  -0.7242470829514668 0.6895405447370671 0  -0.7071067811865475 0.7071067811865476 0  -0.6895405447370669 0.7242470829514669 0  -0.6715589548470184 0.740951125354959 0  -0.6531728429537765 0.7572088465064847 0  -0.6343932841636454 0.7730104533627371 0  -0.6152315905806267 0.7883464276266063 0  -0.5956993044924334 0.8032075314806449 0  -0.5758081914178453 0.8175848131515837 0  -0.555570233019602 0.8314696123025455 0  -0.534997619887097 0.8448535652497072 0  -0.5141027441932217 0.8577286100002721 0  -0.492898192229784 0.8700869911087115 0  -0.4713967368259977 0.881921264348355 0  -0.4496113296546067 0.8932243011955152 0  -0.4275550934302819 0.9039892931234434 0  -0.4052413140049897 0.9142097557035307 0  -0.3826834323650897 0.9238795325112867 0  -0.3598950365349882 0.9329927988347388 0  -0.3368898533922199 0.9415440651830208 0  -0.3136817403988914 0.9495281805930367 0  -0.2902846772544622 0.9569403357322089 0  -0.2667127574748983 0.9637760657954398 0  -0.2429801799032639 0.970031253194544 0  -0.2191012401568697 0.9757021300385286 0  -0.1950903220161282 0.9807852804032304 0  -0.1709618887603012 0.9852776423889412 0  -0.1467304744553616 0.989176509964781 0  -0.1224106751992162 0.99247953459871 0  -0.09801714032956065 0.9951847266721969 0  -0.07356456359966733 0.9972904566786902 0  -0.04906767432741801 0.9987954562051724 0  -0.02454122852291214 0.9996988186962042 0  6.123233995736766e-17 1 0  0.02454122852291226 0.9996988186962042 0  0.04906767432741813 0.9987954562051724 0  0.07356456359966745 0.9972904566786902 0  0.09801714032956077 0.9951847266721968 0  0.1224106751992163 0.99247953459871 0  0.1467304744553617 0.989176509964781 0  0.1709618887603014 0.9852776423889412 0  0.1950903220161283 0.9807852804032304 0  0.2191012401568698 0.9757021300385286 0  0.242980179903264 0.970031253194544 0  0.2667127574748984 0.9637760657954398 0  0.2902846772544623 0.9569403357322089 0  0.3136817403988916 0.9495281805930367 0  0.3368898533922201 0.9415440651830208 0  0.3598950365349883 0.9329927988347388 0  0.3826834323650898 0.9238795325112867 0  0.4052413140049899 0.9142097557035307 0  0.4275550934302822 0.9039892931234433 0  0.4496113296546066 0.8932243011955153 0  0.4713967368259978 0.8819212643483549 0  0.4928981922297841 0.8700869911087113 0  0.5141027441932217 0.8577286100002721 0  0.5349976198870973 0.844853565249707 0  0.5555702330196023 0.8314696123025452 0  0.5758081914178453 0.8175848131515837 0  0.5956993044924335 0.8032075314806448 0  0.6152315905806268 0.7883464276266062 0  0.6343932841636455 0.773010453362737 0  0.6531728429537768 0.7572088465064845 0  0.6715589548470183 0.7409511253549591 0  0.6895405447370669 0.7242470829514669 0  0.7071067811865476 0.7071067811865475 0  0.724247082951467 0.6895405447370668 0  0.7409511253549591 0.6715589548470183 0  0.7572088465064846 0.6531728429537768 0  0.773010453362737 0.6343932841636455 0  0.7883464276266063 0.6152315905806268 0  0.8032075314806449 0.5956993044924334 0  0.8175848131515837 0.5758081914178453 0  0.8314696123025452 0.5555702330196022 0  0.8448535652497071 0.5349976198870972 0  0.8577286100002721 0.5141027441932217 0  0.8700869911087115 0.492898192229784 0  0.881921264348355 0.4713967368259976 0  0.8932243011955153 0.4496113296546065 0  0.9039892931234433 0.4275550934302821 0  0.9142097557035307 0.4052413140049899 0  0.9238795325112867 0.3826834323650898 0  0.932992798834739 0.3598950365349881 0  0.9415440651830208 0.3368898533922201 0  0.9495281805930367 0.3136817403988915 0  0.9569403357322088 0.2902846772544623 0  0.9637760657954398 0.2667127574748984 0  0.970031253194544 0.2429801799032639 0  0.9757021300385286 0.2191012401568698 0  0.9807852804032304 0.1950903220161282 0  0.9852776423889412 0.1709618887603012 0  0.989176509964781 0.1467304744553617 0  0.99247953459871 0.1224106751992162 0  0.9951847266721969 0.0980171403295606 0  0.9972904566786902 0.07356456359966743 0  0.9987954562051724 0.04906767432741801 0  0.9996988186962042 0.02454122852291229 0  1 0 0  20 0 0  20 2.5 0  0 2.5 0  -10 2.5 0  10 2.5 0  -10.5 0 0  -5 2.5 0  10.5 0 0  5 2.5 0  -5.75 0 0  5.75 0 0  -15.25 0 0  -15 2.5 0  15.25 0 0  15 2.5 0  -17.625 0 0  -17.5 2.5 0  17.5 2.5 0  17.625 0 0  12.5 2.5 0  12.875 0 0  -12.5 2.5 0  -12.875 0 0  -2.5 2.5 0  2.5 2.5 0  -8.125 0 0  -7.5 2.5 0  8.125 0 0  7.5 2.5 0  -3.375 0 0  3.375 0 0  -18.75 2.5 0  20 1.25 0  16.4375 1.19375 0  -16.25 2.5 0  13.75 2.5 0  -14.0625 0 0  -11.6875 0 0  11.6875 0 0  8.75 2.5 0  -8.75 2.5 0  6.9375 0 0  6.25 2.5 0  -6.25 2.5 0  -9.3125 0 0  -6.9375 0 0  9.3125 0 0  11.25 2.5 0  -11.25 2.5 0  3.75 2.5 0  4.5625 0 0  -4.5625 0 0  -3.75 2.5 0  -13.75 2.5 0  14.0625 0 0  -16.4375 0 0  -20 1.25 0  -18.8125 0 0  18.75 2.5 0  -18.21875 1.2359375 0  18.125 1.278125 0  -15.84375 1.2125 0  -14.375 1.30859375 0  14.65625 1.203125 0  2.1875 0 0  -2.1875 0 0  13.125 1.315625 0  3.125 1.315625 0  -3.125 1.315625 0  -12.28125 1.1890625 0  -5.15625 1.184375 0  11.09375 1.184375 0  5.625 1.325 0  -10.97262068800044 1.220713793599868 0  9.375 1.32734375 0  -6.875 1.32734375 0  -9.67626828410207 1.24449497187193 0  8.061334925608099 1.312208731402025 0  -8.188665074391901 1.312208731402025 0  -1.25 2.5 0  1.25 2.5 0  4.37465139623265 1.41327350462657 0  16.25 2.5 0  6.84375467392576 1.430449641528851 0  -1.846573640185365 1.334702047669377 0  1.846573640185365 1.334702047669377 0  -17.02955351149946 1.396129584721571 0  16.4375 0 0  18.8125 0 0  -13.31314667860176 1.511193493282891 0  -4.122005747945582 0.961844908681634 0  12.12799425205442 0.961844908681634 0  15.54930641305724 1.660405980876393 0  19.0578783583929 0.9559530595267438 0  8.71875 0.6864560603786576 0  -7.53125 0.6864560603786576 0  -0.6257799091428727 1.819008129832856 0  0.6257799091428734 1.819008129832855 0  6.291331569065717 0.7194652423646902 0  -19.11204717950418 0.9044926794710327 0  -4.488713231834613 1.772186102355655 0  11.76128676816539 1.772186102355655 0  -19.28185607205105 1.781856072051052 0  19.30868080343342 1.808680803433421 0  9.90625 0.6371857066656857 0  -6.34375 0.6371857066656857 0  3.796921710049233 0.7617406159238448 0  7.392020585015773 0.7480839107774819 0  -8.910372062800235 0.7929553447587234 0  10.2506781820361 1.451853913138859 0  -5.999321817963904 1.451853913138859 0  4.957643119381741 0.7716423099297361 0  17.29984375 0.8640625 0  15.41193625859067 0.8279888354083842 0  -13.72251704931534 0.7728002662082776 0  16.875 2.5 0  17.12178336313261 1.690954734835967 0  -11.64001625260176 1.74572103154608 0  2.477726735235857 0.7850262278604345 0  13.46875 0 0  13.765625 0.7802887470308788 0  -2.78125 0 0  -2.477726735235857 0.7850262278604346 0  -10.33383379274331 1.744431431923121 0  13.91957519050334 1.653419259628842 0  -15.08147780274903 0.8341506893754731 0  -15.14066649024666 1.671962869821843 0  -8.950686484882164 1.678622661163363 0  -17.55392917606836 0.794731598412167 0  -16.80247533599675 0.6688259240674158 0  -12.94289066923278 0.7766744225472476 0  -9.90625 0 0  -10.31601468672093 0.7730817089126454 0  -18.21875 0 0  -12.28125 0 0  -17.68515668569534 1.768907656575843 0  18.21875 0 0  10.85059123027421 1.880344717307101 0  -5.399408769725794 1.880344717307101 0  -3.738137326223278 1.749164834446819 0  -3.125 2.5 0  12.46235897590077 1.601301060091387 0  -11.09375 0 0  -11.61661448001209 0.7781698802173554 0  -15.625 2.5 0  -1.764022608759088 0.6027229563180789 0  1.59375 0 0  -8.125 2.5 0  8.125 2.5 0  8.713468311289519 1.727645658498745 0  9.375 2.5 0  -7.536531688710481 1.727645658498745 0  -6.875 2.5 0  14.375 2.5 0  17.78381794101733 1.874391370085592 0  18.59891476281433 1.80649740393129 0  -18.58835555265984 1.824268641341969 0  1.806126122135773 0.6510673837470153 0  -16.875 2.5 0  -16.36681393636619 1.755298393865037 0  -16.13072438662071 0.6014017614895231 0  -13.92460230791385 1.83195710210235 0  -14.40198779087891 0.6105385965811564 0  20 0.625 0  19.40625 0 0  14.6875 1.888836596385542 0  14.65625 0 0  12.78248197181444 0.6991460920542635 0  -3.467518028185561 0.6991460920542635 0  13.125 2.5 0  2.491957142932539 1.738660596534321 0  3.125 2.5 0  1.875 2.5 0  3.718973573227002 1.75927763286174 0  -2.491957142932539 1.738660596534321 0  -1.875 2.5 0  -9.375 2.5 0  6.2001972846108 1.772767401802766 0  5.625 2.5 0  5.027483518098582 1.760895488350309 0  5.625981449127788 0.6566963631252629 0  -12.30101114679273 1.859484693920165 0  9.742489932362783 1.884363450023167 0  -6.507510067637216 1.884363450023166 0  1.13492303295015 1.283502262067074
[...]
<PointData  Scalars="f_2032895"> 
<DataArray  type="Float64"  Name="f_2032895"  format="ascii">3.2278758077791653e-02  -1.1782820645001219e-02  -6.1103104035441655e-02  -4.9484099134095148e-02  -6.1750782871556428e-02  -1.2322073397632755e-01  -1.6007037491733550e-01  -1.9796912775541911e-01  -2.7996628011488151e-01  -3.7379129978370856e-01  -4.0704491233199419e-01  -5.6433485758939650e-01  -7.0978287604426638e-01  -8.3022188312080636e-01  -9.7990641944131218e-01  -1.1219056283626767e+00  -1.3231242324219075e+00  -1.5294095505907042e+00  -1.7769534941986289e+00  -2.0031275563945625e+00  -2.3205019337904647e+00  -2.6762174123149673e+00  -2.9983777575878738e+00  -3.4444542257270987e+00  -3.9299952046341922e+00  -4.3854226856104397e+00  -4.9761421629399942e+00  -5.4894877297355569e+00  -6.0208812428241210e+00  -6.8316836119241753e+00  -7.6881956490464676e+00  -8.7099880122003466e+00  -9.4643726107260466e+00  -1.0138674090962182e+01  -1.1417994419944486e+01  -1.2589147349330700e+01  -1.3227057813331562e+01  -1.5208242879219108e+01  -1.7444379691831671e+01  -1.9389019596425651e+01  -2.0769443400073182e+01  -2.2802106479598940e+01  -2.4748284136542146e+01  -2.6136989207350041e+01  -2.8213733966897149e+01  -3.0921000694996167e+01  -3.1555498654181012e+01  -3.2506683311383632e+01  -3.6413402016613155e+01  -3.9751183667366981e+01  -4.1491054109293231e+01  -4.1552840205048390e+01  -4.3244184403380522e+01  -4.7515544395329712e+01  -4.9668741561353997e+01  -5.1860455019729677e+01  -5.2042656213512998e+01  -5.1874165877101923e+01  -4.9984145050347330e+01  -4.7915808091980317e+01  -4.8409733921013085e+01  -4.4724630504694197e+01  -4.2782817541779970e+01  -3.8064964478827534e+01  -3.0333683001590387e+01  -2.6162596998164094e+01  -1.8462348155580635e+01  -1.2378174459467536e+01  -5.7115145868878825e+00  4.0434611117332153e+00  1.5428548145284820e+01  2.4215427013726647e+01  3.3722675326261474e+01  4.8329667669870787e+01  5.7719650052819127e+01  6.5787185138930781e+01  7.2068181772502626e+01  8.1740389775720928e+01  8.6403764814620843e+01  8.8403674146326452e+01  9.1187922656985421e+01  9.5740347900723393e+01  9.6445588602527295e+01  9.3336063978601132e+01  8.9122279453468181e+01  8.4503033796735366e+01  8.1270551923698449e+01  8.0754465322199280e+01  7.7454991054289025e+01  7.0346036741255006e+01  6.4895842992973243e+01  6.0826735746018038e+01  5.7217387556554861e+01  5.1866493085677348e+01  4.7699505773694291e+01  4.3268851579248384e+01  3.7892164898909314e+01  3.3287627765263380e+01  3.0091165516117957e+01  2.7084550680269821e+01  2.4196835416641143e+01  2.1733401467381452e+01  1.9640386218789480e+01  1.7460587872097470e+01  1.5940987547405141e+01  1.4194230880409950e+01  1.2516452793473556e+01  1.1083496713357977e+01  9.8396689262137311e+00  8.6805121094658944e+00  7.4216660530203962e+00  6.4159144342610865e+00  5.4669432048316420e+00  4.8581037445576616e+00  4.1767339321707180e+00  3.6188052691048682e+00  2.9201559588711032e+00  2.4077960896553430e+00  2.0104880209985052e+00  1.5776704355271387e+00  1.2886441736319452e+00  1.0198939837506011e+00  7.9817811119761595e-01  6.0350884972457874e-01  4.4871902049873802e-01  3.3514835897397716e-01  2.5660869172366202e-01  1.9250934521242866e-01  1.0876804987688228e-01  6.5913226280300205e-02  7.8314848506346998e-02  4.5552564950795558e-09  2.6699124635490078e-08  -2.5186707214583500e+01  1.1298531932577048e-06  1.7003715905575693e-04  1.2315527248263679e-06  7.0019457063840666e-03  1.0684797205729097e-04  5.1798727109173527e-02  -8.2234091898996907e-03  4.7550654129770893e-02  7.0320516363676119e-04  -9.2630873489209673e-05  7.5403355399020090e-08  4.8726279882506093e-07  2.7948725081690454e-03  6.6466142628988977e-04  1.9271838096288293e-08  1.5226849469573976e-08  1.1038866757253239e-05  2.7260668082268044e-06  -9.4201613022333394e-06  7.1833865730901059e-05  2.3837733306138967e-01  6.5305426011371848e-01  -2.4848300079278980e-04  1.2768627857759110e-04  2.6548396922231455e-03  2.6587680104506518e-03  -1.8201340358983850e-01  5.0348023475105763e-01  6.7253785472214615e-03  1.8135662451550792e-07  2.5982570453025030e-07  -9.7229648059477339e-05  2.4375048638018242e-06  2.2932655494177138e-04  1.8113876564806222e-05  1.7886900224622932e-05  6.3456812915740196e-04  1.4666309571813223e-05  1.1747563568038102e-02  1.0859604894319166e-02  9.2508719550978349e-04  -3.3407917505759364e-05  -1.5957278107334768e-03  5.7259367681143766e-04  4.2351423082049973e-05  -2.3371673742161838e-06  2.4566392326681399e-01  1.6426648165698113e-01  -4.1090480793948350e-02  4.0269195974726772e-02  -1.9852402384477652e-05  4.1021934904622724e-07  1.7135450296649859e-03  -4.3789871124903417e-03  4.0833794704849806e-05  1.5744921921189058e-08  1.8124738594438006e-03  1.9634790016898330e-07  -6.4843506922098538e-05  -8.0395142934110571e-05  9.3411345150233635e-07  1.4291383658965937e+00  -8.1645706065281975e-01  5.6457642902748208e-06  3.3965574232537143e-01  3.6981499614049854e-02  -3.9244141198051363e-06  2.6920592913526904e-03  5.7884234432724288e-05  2.4682219873129106e-02  -5.0654218765700722e-07  3.8574341747308081e-04  3.2702833046269951e-04  3.4338587446439290e-06  1.5827804586485720e-03  5.0647096344301682e-05  2.8170117483135648e-01  -1.7347960372074002e+01  9.6250807557508575e-02  8.6690481863983243e-08  4.6724151922354325e-03  -1.1821848080944433e-01  -3.4494988520161252e-01  -4.3788196228300343e-04  7.0395110808037620e-09  1.5714977694822703e-08  -5.4631171648903342e-05  -6.4058963908911991e-03  1.5635196075153111e-05  4.0059571972251297e-07  2.2644444865612501e-07  1.1368535416096204e-03  -1.9827583545062218e-04  -2.8260416720239081e+00  -7.7580679263114419e+01  2.1150644284146584e-02  -2.6444605092323186e-03  2.1048866483187049e-02  3.0439095151218594e-05  8.3716030453600924e-03  8.3086964856328138e-08  2.5032066904873872e-04  -1.4747663507907638e-03  2.9058439799344477e-01  5.5684669910971646e-03  -1.6685902247392304e-05  1.4739545545710436e-04  1.4177054268419379e-03  8.9077751599975524e-02  2.7487009388195203e-07  4.3311688438788294e-07  8.1773131724619539e-05  1.8708056270628743e-08  1.3146058916090276e-07  -9.9217204311010200e-06  9.5145545483901117e-01  9.8250955221346293e-07  1.6813160804874990e-06  -3.9815513009575271e-01  -2.6680298526873902e-01  2.1099876569975843e-08  2.5504103965457749e-06  2.8888748888793051e-04  -4.4389763157156177e-04  1.9630124364113886e-05  2.1793787589084999e-03  1.6575864245153933e-03  3.5607453922584775e-05  -7.2640871306449005e-06  1.0446499639368798e-06  2.2278582729489539e-03  3.5271019065030413e-05  -1.3687424344759581e-03  1.0103985876660400e-08  7.8348696533392693e-05  6.0151539081235760e-03  5.0414604755764397e-02  1.0319598693811267e-01  1.4209293739523904e-05  8.4026847784789417e-06  8.2215068624447834e-06  -8.0065129691994733e-05  -1.0099909665550633e+00  2.2674062633306904e+00  5.6849308302697307e-05  1.2888214710148765e-03  6.0711519994672940e-04  3.3836840207581884e-04  2.0063393388152203e-04  2.8531300486056755e-04  1.1509513455805160e-06  5.5852193696335299e-08  6.4976241736459320e-08  2.7218978207814489e-03  2.1675607097596674e+00  1.6603513117949498e-04  -1.1007076510277773e-03  1.0729025695346028e-03  -1.4068195508377929e-04  2.3250669929492093e-04  2.7142641651495644e-07  3.9677856218461742e-08  1.0088722708629089e-06  1.3912920447665244e-07  5.0613816391160930e-06  -6.6716746711520211e-02  5.0389660507711378e-06  1.4568065958392143e-01  5.0783089257252312e-01  -6.4518946368118213e-01  1.2094023635607681e-01  1.7179480271605588e-01  4.4555714305241445e-01  5.6525078607374233e-06  5.7390989491909539e-03  2.5202375296655657e-02  2.5963577756836557e-02  4.6823308799580424e-02  -2.4743856510721519e-05  2.3597484755157519e-04  1.0240881503681928e-03  -9.8970641666469863e+00  -1.4178235543095061e+00  2.6846211433389118e-05  -1.3871807349111922e-02  9.8342514251225331e-05  -3.3355156889756585e-03  1.7893124617395306e-07  5.8109179652430631e-01  4.1388765735770473e-08  3.1049514420378612e-07  -8.3125666931085690e-05  2.6050237931865687e-03  1.9628720270235076e-03  3.2546531109907306e-01  -7.0919440879131246e+00  -4.0013869780049919e-06  7.2716695339625976e-06  -9.8227078914211008e-02  5.2963688357827003e-06  -6.2218508610209065e-06  2.6014758749531082e-07  2.1538241997543749e-03  -1.1327279727275653e-05  1.2491288400366008e-03  -2.1457766266509567e-03  -1.6165718815833757e-02  -4.6681397425871844e-05  5.5722615172593233e-03  1.2393664222696733e-01  -2.9090920788827585e+01  -7.3272865865284056e-07  -7.9296245239961274e-09  -4.6431247650606844e-06  2.0751373738858107e-02  2.0856092800562531e-05  1.8100475783014786e-02  -5.4978050950242668e+01  -3.9726433884357815e+00  2.1834646666342086e-07  9.5153777375856820e-03  5.7246867111350856e-08  7.4563755172449684e-09  8.5278643183434158e-05  2.3214673958550551e-03  -7.8753968404868442e-04  5.5085958369090305e-06  2.9623309887612558e-07  -1.8764895531706124e-02  4.5350141085986519e-05  4.9927033691840024e-07  -2.8076323398621068e-04  6.1760315665041325e-05  8.9130059337090214e-04  2.9114367738347453e-05  -7.1440565572589263e-04  5.4847557673272439e-04  -1.8264309568415356e+00  4.2816406297787381e-04  1.2958084093335766e-04  9.1434758394657631e-02  -8.3628289128260321e-05  5.8055932399717035e-03  2.9264502470326731e-01  -3.4176143290396152e-03  2.5420873575799155e-04  2.4996714680644672e-02  -5.6897351486233047e-04  1.2561334973455783e-03  2.4420829792920280e-03  1.1457886869633757e-03  8.8903493388697064e-01  1.2668667467338774e-08  2.3161024143640113e-01  7.7150327724570299e-06  1.2427521329370309e-01  1.2431210412147680e-02  1.6040010471655359e-04  2.6593372191398402e-07  1.8530809188016895e-01  8.1455399868885338e-04  -1.5841584686515609e-03  1.2090934253316723e-02  3.3703973694353674e-07  4.0965255265526100e-02  1.8327523590153275e-07  -1.5863447626746451e-05  -5.2912726005521608e-05  9.6999255407253918e-07  2.6713538689867857e-03  1.3440992810542134e-04  -4.7582690869083092e-05  2.6489929913692824e-03  1.9589036219403275e-03  4.2443459797358793e-03  3.0471193235844050e-05  9.1063975288095279e-03  1.1066543799945960e-02  -8.1439360800030481e-05  9.0594811958062181e-05  9.3534680568099901e-04  4.5440554273643626e-04  3.7063800554808398e-04  1.7888173020794959e-05  2.6783273431429514e-03  2.9145788394692022e-03  2.3199878026771017e-07  -4.0946155720051162e-02  1.1747214190643728e-05  3.7541547670835921e-07  5.7194959955799324e-07  1.7718471877057948e-01  -2.0771189893963291e-01  4.4416656463883875e-02  2.3347326545383559e-07  1.8781325823319399e-07  3.1744661208619418e-06  3.1119745948488427e-02  7.9553378216754911e-04  2.3709309752604507e-01  -3.7860628789625722e-01  5.2461147978854008e-07  1.0329856554916497e-04  -3.2186918364249808e-06  1.7808319573194895e-07  4.4813232686470077e-06  3.0544686714680337e-06  1.6869060566610474e-06  -4.3919694200263642e-04  1.7486882323683011e-06  4.3888351994552597e+00  9.8082428945045211e-06  4.3476286006638099e-01  -1.3354899161856400e-02  -3.1276788556638072e-03  -1.4731389543702560e-02  -1.7688693888009442e-02  2.6063978632102870e-03  5.0545962790167876e-08  -1.6758285964712176e+00  7.6917619607509202e-02  -4.5133806966490077e+01  -1.3708633756958575e+01  -2.8209015676986837e+01  9.1770638930490124e-05  4.6079409837728542e-04  2.9710676143063668e-07  9.9174562315954395e-02  1.7088136304075465e-07  1.0486577162213039e-05  2.2127170638561285e-07  2.6399320055708450e-07  2.1190435937448770e-06  5.1307122500358722e-05  -1.0876628872556906e-02  5.2408187853947455e-05  6.3691553165107380e-04  1.0474335144132601e-02  4.5812409300526964e-05  1.4937877989621172e-06  1.7880821122632656e-03  -2.6701980483493921e-04  -1.1497319621358610e-03  4.6170395310438320e-03  2.6800772138160343e-05  -8.2688103850154539e-04  3.3846268307480006e-02  2.4820739853985901e-02  1.1940775545427824e-05  9.2731005864065495e-03  8.1388798833967537e-09  1.2990034705965395e-01  4.6122510836089720e-05  9.3663132268980934e-03  2.1102816052674093e-05  1.4856956330461628e-02  -1.6218569446534550e-06  -3.6547286671185313e-05  1.3478595449795519e-06  -8.4157717137408984e-09  1.3965059671026148e-07  1.5290834704478751e-05  -1.2025777397755942e+01  -6.6583877756052956e+01  2.7727017274515541e-07  1.0045293589457994e-04  1.6276284933547369e-04  -4.4368303755699995e-05  6.1044353127726731e-04  4.2329955838793222e-04  2.4054603321198734e-04  2.2468574235538236e-02  2.7695388025645497e-02  -4.7810001661990741e-09  -6.5295626508143966e-05  1.6486282499548255e-02  1.8471356504463090e-03  -4.0891029268648166e-01  6.2957192458523548e-01  8.3580881635103108e-03  7.0565440475503158e-03  -3.2955927518961692e-06  3.4852185786658020e-04  1.4822253861449845e-04  -4.4869455974972782e-03  3.1470359204061432e-01  3.9016968728137713e-01  -2.6398663375723792e-03  1.1744761307998011e-01  1.3181206784254743e-01  3.1164189685217534e-06  -1.7412191618445718e+00  2.0941734870061636e-03  6.1987923830914515e-06  -1.0367258936910242e-01  1.7884260314664027e-01  2.4764796980138816e-07  -9.9346807609723416e-04  4.9925389956531041e-07  8.6198049701531317e-04  2.4151821660109727e-04  8.3553151651086075e-05  -1.7749748436599692e-04  -5.9652259988112718e-06  -4.2857162859532077e-06  3.8777629601418423e-01  3.6497072444969775e-05  1.9488331446711897e-05  9.2286464264105252e-06  -2.3932065773289732e+01  3.8373856282761270e-04  -1.7805076485126843e-03  6.3545367074834696e-05  1.7695798052413906e-04  1.1514485203405801e-05  3.0563386382403754e-07  -8.4509244386633028e-04  4.5787739460089530e-03  -4.5959747723614264e-01  1.1737045867832074e+00  -5.9824602413001437e-04  9.1863190056765609e-04  -3.8952782821439976e-09  5.0943046704266176e-09  -3.5698509105233363e-04  -1.0869399848852554e-07  -8.1714691647671936e-02  1.0192729893825425e+00  2.1724161909597368e-02  1.3416527269542381e-06  -3.7836348828122168e+00  5.9362000441112221e-02  3.9476783339655702e-01  3.6095371544224541e-08  2.6639696230376954e-06  -2.5504639402110799e-04  -7.3351268902949884e-01  1.3140555358526864e-02  4.8531299635900903e-04  2.4269903756741852e-04  3.3377717916588596e-04  -1.7125559755625634e-03  6.2901401781007008e-07  2.4853804433894370e-07  5.6766921901905596e-04  1.1606937652537533e-05  -1.2846100279577584e-06  2.2410133709558126e-08  -3.3485418417479037e-04  2.9596168524795528e+00  8.0097588980557771e-07  8.0324745957860155e-02  3.6606016787439212e-07  6.1129170258945387e-01  1.1279893059996849e-04  3.0929322155445784e-06  -1.6938345786849350e-04  2.9601995346332197e-05  -3.1025718602296238e-02  1.8421273059733595e-01  4.6067009447862987e-03  1.6315810326645870e-03  1.9971989529879637e-03  9.5196961437482629e-04  3.0219298863983987e-07  -1.4284332439136636e-05  1.9050997487930966e-06  1.8899795804993738e-01  -1.2459571294981947e-05  8.1779720859680480e-02  3.1862469268702813e-03  6.7417165483320122e-04  2.3346077705632984e-01  -7.2047123676503952e+00  -4.9841710827336974e-02  3.1229771139101421e-02  1.9291758198205763e-01  4.4958175484821519e-02  2.3049575713566344e-07  1.2044741126083189e-07  3.7925281186552699e-03  6.7418259175986451e-06  5.8152176412366582e-05  9.2747254714505335e-06  2.4667588705699753e-07  -7.7433023264749206e-05  1.1429580969297678e-07  6.0741195150715277e-07  7.2454620630043156e-03  3.0463170817190434e-04  8.5140996348023810e-04  2.2537748586639651e-04  4.0175172072778893e-03  -7.9675547205942088e-01  -9.7923985457546506e-02  1.1633904826813051e-02  2.0065598536759192e-03  1.7842167760565126e-03  1.8816059041587264e-03  5.8770355605653509e-04  1.5223147116421199e-03  -5.1662604020467182e-05  3.0226904808129290e-01  6.2995073241955163e-02  1.7698297132910594e-02  2.0425580340644369e-02  -2.1132122098634602e-05  1.6092056584001360e+00  8.1872977670597032e-05  -1.2817826864198339e-03  -4.7066021945258330e-04  -9.1819204661546850e-04  -4.4589909097429327e+01  4.2406973786419083e-07  4.6947569964644852e-02  3.5519226373677787e-03  3.4437578258228366e-02  2.6938694763712595e-01  2.9381967401284584e-07  -1.2323254731584458e-02  6.8245340865780393e-05  -1.3904484791564522e-03  2.3335486233584343e-01  1.9943355670748526e-02  1.6303861347821552e-03  1.6529193981867917e-07  1.1378313362353135e-04  3.5905540217239873e-03  5.8433730881510927e-05  3.2787258489082602e-03  4.8337830566717528e-06  3.0389167293434598e-05  1.5728954616594012e-02  1.2835308676134513e-01  -1.6571007546547478e-06  3.1278225474745840e-07  -6.1673082214941111e-01  3.0803772459964667e-03  1.8328379700529491e-03  1.1633063861719067e-02  3.2310752887124400e-02  -3.3519463127904032e+00  -1.9015572306169568e+00  8.2088056577252022e-01  7.4638353886913285e+00  8.9056702128040393e-06  8.7852532404109158e-08  -4.6977124962209769e-06  7.5710288255095552e-05  -8.9101976079644131e-03  5.4167156207547305e-04  4.9426790284590053e-04  2.4496818287235363e-04  3.0960742133325062e-04  -1.7909595078018103e-05  1.4052300069366644e-06  6.6256651542649203e-04  1.0877673210697980e-08  -7.7962346915341732e-09  2.2749926122527450e-01  -7.7036163565199135e-07  7.2309921197796932e-08  3.0607842231326625e-03  2.2566655652032828e-03  2.8590512797278452e-07  8.7953837078613791e-06  -1.7384908104227162e-01  -4.6119321424429469e-02  6.1463507149255451e-06  5.8926691594537301e-04  2.1725832872835512e-03  -5.9305403197314016e-07  3.1395499452822380e-04  2.5583918952058326e-04  6.6411050351075182e-05  -2.9014704805873830e-03  2.4538406899845538e-05  2.1671054597299744e-07  1.8420894459114817e-03  1.3101232232264842e-03  -6.1234759112637608e-05  7.4458145935974836e-05  -6.5943064458566562e-06  -1.3723307503851634e-04  -9.6299849543807420e-05  -1.0119343813432409e-04  2.0873094042160386e-05  1.0678292163935126e-07  9.0180901863804492e-07  1.0600320259785577e-06  6.1187828097884938e-07  -1.2382882491891933e+00  2.2349497922482002e+00  3.3798350012547249e-06  -1.5708333906404556e-05  -2.6041456742359212e-05  2.5844016846490695e-07  3.2159725731910721e-08  1.4170866548726561e-06  -9.0300926257028891e+01  -3.3799679536017877e+01  -2.6413439253218707e+00  -5.6548196371212351e-04  3.8485417440571159e-05  -2.2003567991644574e-03  1.8904250766496676e-05  -1.7213433574876993e-02  1.8626690195866013e-05  -3.1780877520896943e-02  -2.5781932602329427e-05  1.8416090033805035e-03  2.5025779351031417e-07  1.0226159702333517e-03  1.3666635912043899e-03  4.2500961776836110e-01  5.9864998339505604e-01  2.3772840481124711e-07  3.6645817080199133e-07  4.1835246893605528e-08  4.9472561978822771e-02  5.0735094123396607e-02  4.5307738162805286e-06  1.8240968864082014e-04  1.2219543683848792e-03  7.0277781114836410e-04  2.0872377634829537e-04  8.6457537027902816e-04  3.1175811894273677e-04  2.4981196084170093e-07  1.4637894318664230e-08  2.2089631626858219e-07  5.7682234165060475e-06  1.1495681493436632e-03  1.0004771055706838e-05  1.5768959496522879e-08  1.5724076084231466e-06  3.2906105820455243e-02  3.6976555532300734e-04  -4.5287780030812402e-01  3.7727373442168147e-03  9.5942079937695173e-05  3.3121395192336784e-04  -1.4924143861232082e-04  2.8429989080600839e-03  7.6878732204814387e-06  2.7662787209615648e-03  -1.5311099211646329e-02  2.9229116579017733e-01  -1.9279388957208212e+01  4.5536003322733704e-01  -1.5273147766287267e+00  1.6990008027101681e-08  -3.3057034210267078e-06  2.2905144328281787e-07  -1.6148176195812798e-05  -1.9090393069593271e-05  -1.3800768586877603e-05  4.4619370357334104e-01  6.2026190348251625e-06  -6.2162119720218789e-03  3.2851153146822337e-07  6.7203051205482950e-02  -4.5197536695685155e-05  -8.1573848413874755e-03  -1.6931911601101655e-02  -7.0436881342405552e-05  4.2985890893094353e-01  1.8937400282611194e-07  -2.2418417128909365e+01  1.8154438954720747e-01  3.5275390676851819e-06  2.3489253601923754e-04  -3.0148213321564876e-03  3.1806442360547959e-05  -1.8554096479214858e-02  1.0133338489180893e-05  -2.8135398182665339e-01  -1.0848319846104252e-03  4.0041910510733329e-05  2.6113478996969350e-07  5.2163706840337339e-08  1.6993083329443651e-07  -6.2314314501744228e+01  -3.3587556898867241e+01  -1.0523608381