<?xml version="1.0"?>
<VTKFile type="UnstructuredGrid"  version="0.1"  >
<UnstructuredGrid>
<Piece  NumberOfPoints="2401" NumberOfCells="4608">
<Points>
<DataArray  type="Float64"  NumberOfComponents="3"  format="ascii">0 0 0  0.001070538380698371 0 0  0.004277569313095364 0 0  0.009607359798386061 0 0  0.01703708685546806 0 0  0.02653493525245065 0 0  0.03806023374436157 0 0  0.05156362923366253 0 0  0.06698729810778931 0 0  0.08426519384873815 0 0  0.1033233298543955 0 0  0.1240800962605269 0 0  0.1464466094067445 0 0  0.1703270924499866 0 0  0.1956192854956637 0 0  0.2222148834902257 0 0  0.2500000000000299 0 0  0.2788556548905322 0 0  0.308658283817491 0 0  0.339280267348458 0 0  0.3705904774487813 0 0  0.4024548389919803 0 0  0.4347369038900211 0 0  0.467298435384978 0 0  0.5000000000000517 0 0  0.5327015646151253 0 0  0.5652630961100813 0 0  0.5975451610081212 0 0  0.6294095225513188 0 0  0.6607197326516399 0 0  0.6913417161826045 0 0  0.7211443451095605 0 0  0.7500000000000597 0 0  0.7777851165098603 0 0  0.8043807145044185 0 0  0.829672907550091 0 0  0.8535533905933287 0 0  0.8759199037395413 0 0  0.8966766701456674 0 0  0.9157348061513193 0 0  0.9330127018922625 0 0  0.9484363707663832 0 0  0.961939766255678 0 0  0.9734650647475827 0 0  0.9829629131445586 0 0  0.9903926402016341 0 0  0.9957224306869181 0 0  0.9989294616193084 0 0  1 0 0  0 0.02083333333333333 0  0.001070538380698371 0.02083333333333333 0  0.004277569313095364 0.02083333333333333 0  0.009607359798386061 0.02083333333333333 0  0.01703708685546806 0.02083333333333333 0  0.02653493525245065 0.02083333333333333 0  0.03806023374436157 0.02083333333333333 0  0.05156362923366253 0.02083333333333333 0  0.06698729810778931 0.02083333333333333 0  0.08426519384873815 0.02083333333333333 0  0.1033233298543955 0.02083333333333333 0  0.1240800962605269 0.02083333333333333 0  0.1464466094067445 0.02083333333333333 0  0.1703270924499866 0.02083333333333333 0  0.1956192854956637 0.02083333333333333 0  0.2222148834902257 0.02083333333333333 0  0.2500000000000299 0.02083333333333333 0  0.2788556548905322 0.02083333333333333 0  0.308658283817491 0.02083333333333333 0  0.339280267348458 0.02083333333333333 0  0.3705904774487813 0.02083333333333333 0  0.4024548389919803 0.02083333333333333 0  0.4347369038900211 0.02083333333333333 0  0.467298435384978 0.02083333333333333 0  0.5000000000000517 0.02083333333333333 0  0.5327015646151253 0.02083333333333333 0  0.5652630961100813 0.02083333333333333 0  0.5975451610081212 0.02083333333333333 0  0.6294095225513188 0.02083333333333333 0  0.6607197326516399 0.02083333333333333 0  0.6913417161826045 0.02083333333333333 0  0.7211443451095605 0.02083333333333333 0  0.7500000000000597 0.02083333333333333 0  0.7777851165098603 0.02083333333333333 0  0.8043807145044185 0.02083333333333333 0  0.829672907550091 0.02083333333333333 0  0.8535533905933287 0.02083333333333333 0  0.8759199037395413 0.02083333333333333 0  0.8966766701456674 0.02083333333333333 0  0.9157348061513193 0.02083333333333333 0  0.9330127018922625 0.02083333333333333 0  0.9484363707663832 0.02083333333333333 0  0.961939766255678 0.02083333333333333 0  0.9734650647475827 0.02083333333333333 0  0.9829629131445586 0.02083333333333333 0  0.9903926402016341 0.02083333333333333 0  0.9957224306869181 0.02083333333333333 0  0.9989294616193084 0.02083333333333333 0  1 0.02083333333333333 0  0 0.04166666666666666 0  0.001070538380698371 0.04166666666666666 0  0.004277569313095364 0.04166666666666666 0  0.009607359798386061 0.04166666666666666 0  0.01703708685546806 0.04166666666666666 0  0.02653493525245065 0.04166666666666666 0  0.03806023374436157 0.04166666666666666 0  0.05156362923366253 0.04166666666666666 0  0.06698729810778931 0.04166666666666666 0  0.08426519384873815 0.04166666666666666 0  0.1033233298543955 0.04166666666666666 0  0.1240800962605269 0.04166666666666666 0  0.1464466094067445 0.04166666666666666 0  0.1703270924499866 0.04166666666666666 0  0.1956192854956637 0.04166666666666666 0  0.2222148834902257 0.04166666666666666 0  0.2500000000000299 0.04166666666666666 0  0.2788556548905322 0.04166666666666666 0  0.308658283817491 0.04166666666666666 0  0.339280267348458 0.04166666666666666 0  0.3705904774487813 0.04166666666666666 0  0.4024548389919803 0.04166666666666666 0  0.4347369038900211 0.04166666666666666 0  0.467298435384978 0.04166666666666666 0  0.5000000000000517 0.04166666666666666 0  0.5327015646151253 0.04166666666666666 0  0.5652630961100813 0.04166666666666666 0  0.5975451610081212 0.04166666666666666 0  0.6294095225513188 0.04166666666666666 0  0.6607197326516399 0.04166666666666666 0  0.6913417161826045 0.04166666666666666 0  0.7211443451095605 0.04166666666666666 0  0.7500000000000597 0.04166666666666666 0  0.7777851165098603 0.04166666666666666 0  0.8043807145044185 0.04166666666666666 0  0.829672907550091 0.04166666666666666 0  0.8535533905933287 0.04166666666666666 0  0.8759199037395413 0.04166666666666666 0  0.8966766701456674 0.04166666666666666 0  0.9157348061513193 0.04166666666666666 0  0.9330127018922625 0.04166666666666666 0  0.9484363707663832 0.04166666666666666 0  0.961939766255678 0.04166666666666666 0  0.9734650647475827 0.04166666666666666 0  0.9829629131445586 0.04166666666666666 0  0.9903926402016341 0.04166666666666666 0  0.9957224306869181 0.04166666666666666 0  0.9989294616193084 0.04166666666666666 0  1 0.04166666666666666 0  0 0.0625 0  0.001070538380698371 0.0625 0  0.004277569313095364 0.0625 0  0.009607359798386061 0.0625 0  0.01703708685546806 0.0625 0  0.02653493525245065 0.0625 0  0.03806023374436157 0.0625 0  0.05156362923366253 0.0625 0  0.06698729810778931 0.0625 0  0.08426519384873815 0.0625 0  0.1033233298543955 0.0625 0  0.1240800962605269 0.0625 0  0.1464466094067445 0.0625 0  0.1703270924499866 0.0625 0  0.1956192854956637 0.0625 0  0.2222148834902257 0.0625 0  0.2500000000000299 0.0625 0  0.2788556548905322 0.0625 0  0.308658283817491 0.0625 0  0.339280267348458 0.0625 0  0.3705904774487813 0.0625 0  0.4024548389919803 0.0625 0  0.4347369038900211 0.0625 0  0.467298435384978 0.0625 0  0.5000000000000517 0.0625 0  0.5327015646151253 0.0625 0  0.5652630961100813 0.0625 0  0.5975451610081212 0.0625 0  0.6294095225513188 0.0625 0  0.6607197326516399 0.0625 0  0.6913417161826045 0.0625 0  0.7211443451095605 0.0625 0  0.7500000000000597 0.0625 0  0.7777851165098603 0.0625 0  0.8043807145044185 0.0625 0  0.829672907550091 0.0625 0  0.8535533905933287 0.0625 0  0.8759199037395413 0.0625 0  0.8966766701456674 0.0625 0  0.9157348061513193 0.0625 0  0.9330127018922625 0.0625 0  0.9484363707663832 0.0625 0  0.961939766255678 0.0625 0  0.9734650647475827 0.0625 0  0.9829629131445586 0.0625 0  0.9903926402016341 0.0625 0  0.9957224306869181 0.0625 0  0.9989294616193084 0.0625 0  1 0.0625 0  0 0.08333333333333333 0  0.001070538380698371 0.08333333333333333 0  0.004277569313095364 0.08333333333333333 0  0.009607359798386061 0.08333333333333333 0  0.01703708685546806 0.08333333333333333 0  0.02653493525245065 0.08333333333333333 0  0.03806023374436157 0.08333333333333333 0  0.05156362923366253 0.08333333333333333 0  0.06698729810778931 0.08333333333333333 0  0.08426519384873815 0.08333333333333333 0  0.1033233298543955 0.08333333333333333 0  0.1240800962605269 0.08333333333333333 0  0.1464466094067445 0.08333333333333333 0  0.1703270924499866 0.08333333333333333 0  0.1956192854956637 0.08333333333333333 0  0.2222148834902257 0.08333333333333333 0  0.2500000000000299 0.08333333333333333 0  0.2788556548905322 0.08333333333333333 0  0.308658283817491 0.08333333333333333 0  0.339280267348458 0.08333333333333333 0  0.3705904774487813 0.08333333333333333 0  0.4024548389919803 0.08333333333333333 0  0.4347369038900211 0.08333333333333333 0  0.467298435384978 0.08333333333333333 0  0.5000000000000517 0.08333333333333333 0  0.5327015646151253 0.08333333333333333 0  0.5652630961100813 0.08333333333333333 0  0.5975451610081212 0.08333333333333333 0  0.6294095225513188 0.08333333333333333 0  0.6607197326516399 0.08333333333333333 0  0.6913417161826045 0.08333333333333333 0  0.7211443451095605 0.08333333333333333 0  0.7500000000000597 0.08333333333333333 0  0.7777851165098603 0.08333333333333333 0  0.8043807145044185 0.08333333333333333 0  0.829672907550091 0.08333333333333333 0  0.8535533905933287 0.08333333333333333 0  0.8759199037395413 0.08333333333333333 0  0.8966766701456674 0.08333333333333333 0  0.9157348061513193 0.08333333333333333 0  0.9330127018922625 0.08333333333333333 0  0.9484363707663832 0.08333333333333333 0  0.961939766255678 0.08333333333333333 0  0.9734650647475827 0.08333333333333333 0  0.9829629131445586 0.08333333333333333 0  0.9903926402016341 0.08333333333333333 0  0.9957224306869181 0.08333333333333333 0  0.9989294616193084 0.08333333333333333 0  1 0.08333333333333333 0  0 0.1041666666666667 0  0.001070538380698371 0.1041666666666667 0  0.004277569313095364 0.1041666666666667 0  0.009607359798386061 0.1041666666666667 0  0.01703708685546806 0.1041666666666667 0  0.02653493525245065 0.1041666666666667 0  0.03806023374436157 0.1041666666666667 0  0.05156362923366253 0.1041666666666667 0  0.06698729810778931 0.1041666666666667 0  0.08426519384873815 0.1041666666666667 0  0.1033233298543955 0.1041666666666667 0  0.1240800962605269 0.1041666666666667 0  0.1464466094067445 0.1041666666666667 0  0.1703270924499866 0.1041666666666667 0  0.1956192854956637 0.1041666666666667 0  0.2222148834902257 0.1041666666666667 0  0.2500000000000299 0.1041666666666667 0  0.2788556548905322 0.1041666666666667 0  0.308658283817491 0.1041666666666667 0  0.339280267348458 0.1041666666666667 0  0.3705904774487813 0.1041666666666667 0  0.4024548389919803 0.1041666666666667 0  0.4347369038900211 0.1041666666666667 0  0.467298435384978 0.1041666666666667 0  0.5000000000000517 0.1041666666666667 0  0.5327015646151253 0.1041666666666667 0  0.5652630961100813 0.1041666666666667 0  0.5975451610081212 0.1041666666666667 0  0.62
[...]
<PointData  Scalars="f_3427214"> 
<DataArray  type="Float64"  Name="f_3427214"  format="ascii">-5.7628699645013644e+00  -5.7680854520817118e+00  -5.7459808775400623e+00  -5.6583053252025959e+00  -5.4687428953748869e+00  -5.1411923114156366e+00  -4.6731653315749124e+00  -3.7975873678215342e+00  -2.8081162225296796e+00  -1.6886199334427390e+00  -6.6546464872795930e-01  2.4079608309553682e-01  1.8286219218293858e+00  3.2783147614380446e+00  4.2440713305211810e+00  5.0156574113240859e+00  6.2873752851453206e+00  7.0997025520105899e+00  8.9049443145430960e+00  1.0939304839407033e+01  1.1547276790979387e+01  1.2056945063057178e+01  1.3138542089878788e+01  1.4711489908869749e+01  1.4869779932377805e+01  1.4674674288056821e+01  1.4778250696620461e+01  1.5433757213394568e+01  1.5704086800975194e+01  1.5434634067265307e+01  1.4570981114479057e+01  1.3835649288656041e+01  1.3222245821571940e+01  1.2147958599313766e+01  1.0871409184793958e+01  9.8983470232446713e+00  8.7184075441887199e+00  7.7882069335156867e+00  6.8154488274830145e+00  5.9346082492532162e+00  5.0846001243190937e+00  4.2955999704580448e+00  3.5884103735737738e+00  3.0434389372894821e+00  2.6731551332412575e+00  2.4508086638138509e+00  2.3462590200660562e+00  2.3189987638840055e+00  2.3116292333957769e+00  -6.3092795970204243e+00  -6.3064075919798057e+00  -6.2902886055368210e+00  -6.2153434365962426e+00  -6.0348195550044563e+00  -5.6846367084625937e+00  -5.1729311819311619e+00  -4.3689825801547197e+00  -3.0893466597467425e+00  -2.2456386248625098e+00  -9.5226509313523733e-01  -1.1612135978140496e-01  1.4258416174861472e+00  3.2153965283675698e+00  3.9842043162029794e+00  4.7847088046117792e+00  6.0353676623225869e+00  6.9542944836254099e+00  8.2421487455681604e+00  1.0765603573974932e+01  1.1203793772881436e+01  1.1829291647058229e+01  1.2857221124094810e+01  1.4410424445388477e+01  1.4577676818172250e+01  1.4352888900811891e+01  1.4480217325491727e+01  1.5078792232961710e+01  1.5618988070287594e+01  1.5122310437553427e+01  1.4252332959202773e+01  1.3505055461968853e+01  1.3015437011834310e+01  1.1535437944859707e+01  1.0123785476373882e+01  9.1293262403899220e+00  7.9944208385130384e+00  7.2757371791192078e+00  6.5903968970192546e+00  5.3971614286483591e+00  4.4990504910480578e+00  3.9594222674498156e+00  3.2143685779308107e+00  2.6043099318216689e+00  2.1806163073033469e+00  1.9175377843994466e+00  1.7934757605705876e+00  1.7583086775021395e+00  1.7543039139198331e+00  -7.0189510835143549e+00  -7.0217100220457747e+00  -7.0051122485978539e+00  -6.9386804044688324e+00  -6.7812052509443843e+00  -6.4889172266566408e+00  -5.9698042017223525e+00  -5.2347819573246230e+00  -4.0664824612347426e+00  -3.1133444685464489e+00  -1.8960599976332571e+00  -9.4519244030172034e-01  1.5478363619694652e-01  2.9180796588163100e+00  3.5650980602787596e+00  4.2830035601329763e+00  5.5528226741013498e+00  6.4756003240656046e+00  7.5639226896760778e+00  1.0105134966406782e+01  1.0602930893263673e+01  1.1181598290332264e+01  1.2122423370685121e+01  1.3619662241358416e+01  1.3783725859814689e+01  1.3649718515629958e+01  1.3740495422550611e+01  1.4159150648890749e+01  1.4990332940698508e+01  1.4185042484414547e+01  1.3268915897257017e+01  1.2731653944786505e+01  1.2170377830573551e+01  1.0251155493209733e+01  8.9823971719703746e+00  8.1081646001751455e+00  7.0174980029435705e+00  6.3908812494480323e+00  5.8441769875128928e+00  4.1430987026366974e+00  3.3839582242576087e+00  2.7768007991194290e+00  1.6745647062516671e+00  9.2467769533631561e-01  5.6883240556005843e-01  3.9378996691180762e-01  3.3846205709181876e-01  3.3556184570934672e-01  3.4431253752606578e-01  -8.2185076439275377e+00  -8.2113556795051252e+00  -8.1902029494246769e+00  -8.1215700939984643e+00  -7.9599779966565976e+00  -7.6525718939845220e+00  -7.1189535786599434e+00  -6.1301728302990144e+00  -4.9242261137667311e+00  -4.0363882790763439e+00  -2.7584333208126530e+00  -1.8153564172586270e+00  -8.1934033880135138e-01  2.3160106504096474e+00  3.0126085420779223e+00  3.7110656064618719e+00  4.9384283916618523e+00  5.8624743172146934e+00  6.8751697440139292e+00  9.3387054026780234e+00  9.8858253479794413e+00  1.0383889625218332e+01  1.1196318504708998e+01  1.2648829827952623e+01  1.2823784043202981e+01  1.2768639603013119e+01  1.2830726719934619e+01  1.3093276155707562e+01  1.3541793041518220e+01  1.2240925256160157e+01  1.1377237150786923e+01  1.1372019225769604e+01  1.0929167623351054e+01  8.9140219241565308e+00  7.9047592386744689e+00  7.1152915301984523e+00  6.0931466739873814e+00  5.5486931173154925e+00  5.0180588153307450e+00  3.1063499938350709e+00  2.1988592386707548e+00  1.3510327126164188e+00  2.2904080808363361e-01  -3.5200185687848751e-01  -6.5554191033996523e-01  -8.2753086274027032e-01  -8.9595816471987699e-01  -9.1602715340927121e-01  -9.2100920517804297e-01  -9.1227664522599241e+00  -9.1339852006804527e+00  -9.1223093656924519e+00  -9.0558985235121039e+00  -8.8907061626552366e+00  -8.6062671355175482e+00  -8.1143053058424890e+00  -7.1996899979297178e+00  -5.9253734698254750e+00  -4.9738526306193549e+00  -3.6396566688586947e+00  -2.6628379542063949e+00  -1.6946433586041982e+00  1.5241943837254206e+00  2.3155794493576711e+00  3.0126175662387249e+00  4.2178696663986708e+00  5.1355221520548566e+00  6.1098615069328499e+00  8.4654630845660446e+00  9.0471404631156922e+00  9.4914638273605032e+00  1.0183025808280588e+01  1.1541873843679031e+01  1.1753627468743117e+01  1.1757767152752450e+01  1.1803206773240673e+01  1.1920710886558807e+01  1.2033606559998409e+01  1.0611123973926782e+01  9.9708394987517206e+00  9.6136913203364447e+00  9.1452812013329829e+00  7.5990681177195611e+00  6.7493004103281207e+00  6.0223877356599100e+00  5.0720686992518589e+00  4.5591156292339026e+00  3.9955818380557648e+00  2.0784387436628928e+00  7.0928474970256550e-01  -3.0369947871371028e-01  -1.2119098536015835e+00  -1.6837143137998678e+00  -1.9724750642439501e+00  -2.1293409113393698e+00  -2.1886954306720519e+00  -2.1992031113502635e+00  -2.1940993422908162e+00  -1.0294908698380402e+01  -1.0274309309489725e+01  -1.0232443774796289e+01  -1.0128789282123728e+01  -9.9198313223781245e+00  -9.5723564042351796e+00  -8.9595373060574435e+00  -8.0202657702938485e+00  -7.0514210257891623e+00  -6.0678309421703958e+00  -4.6019927511448255e+00  -3.5420998214867101e+00  -2.5467917754243299e+00  6.4409772698111512e-01  1.4962963118190331e+00  2.2049491957835237e+00  3.4092520606130816e+00  4.3213699628233888e+00  5.2689344185338545e+00  7.5309234955368902e+00  8.1365520902824446e+00  8.5418471657311592e+00  9.1429870731126428e+00  1.0384139607776078e+01  1.0637472213802392e+01  1.0687046135478427e+01  1.0717361819441994e+01  1.0733528409046821e+01  1.0593250975570172e+01  9.3195375171453527e+00  8.7971180501162731e+00  8.4099955681666643e+00  7.9134490417696943e+00  6.3472349822787351e+00  5.5476465109367794e+00  4.8770307447535375e+00  3.9597113084414417e+00  3.4304698866278067e+00  2.6021388060369532e+00  4.9640675756047609e-01  -1.1864119684651757e+00  -2.2814547183769300e+00  -2.9847027977591893e+00  -3.4290529418746405e+00  -3.7128659473574577e+00  -3.8604629719620731e+00  -3.9246920441582165e+00  -3.9439337708612014e+00  -3.9492773952611171e+00  -1.2293582701335408e+01  -1.2309922837358679e+01  -1.2313668940142849e+01  -1.2264724282607197e+01  -1.2119735384119569e+01  -1.1831952710088999e+01  -1.1247753687379490e+01  -9.9450160661451399e+00  -8.4207736329904517e+00  -7.3596536609635042e+00  -5.7044573375171241e+00  -4.4672099084096990e+00  -3.3925765968624457e+00  -2.8932798078140676e-01  5.9039630566544565e-01  1.3167608997752587e+00  2.5350211928495350e+00  3.4483492909510489e+00  4.3782482011941033e+00  6.5626993163405221e+00  7.1836284722358021e+00  7.5715242499097579e+00  8.1032131296836791e+00  9.2208424311907535e+00  9.5144853289968729e+00  9.6016610170568022e+00  9.6185467267811156e+00  9.5678744987341293e+00  9.2412257728151097e+00  8.1058722735993225e+00  7.6635327772176947e+00  7.3215800329527161e+00  6.8481956781230444e+00  5.1408577287096398e+00  4.4064935913424597e+00  3.7191166495949881e+00  2.7257378221074111e+00  2.0502808451364531e+00  7.2077334541248073e-01  -1.3898970220245124e+00  -2.7929976024371261e+00  -3.7281344380117645e+00  -4.2513629812742622e+00  -4.6257276852149394e+00  -4.8610129915350724e+00  -4.9819161486697121e+00  -5.0288259249508851e+00  -5.0364981009565621e+00  -5.0331476232582597e+00  -1.2935785295721926e+01  -1.2934337172264334e+01  -1.2921403476002606e+01  -1.2863163176750160e+01  -1.2713792889170140e+01  -1.2428424800233135e+01  -1.1965961244623626e+01  -1.1312016147677033e+01  -1.0194029911952711e+01  -8.9124932905694720e+00  -7.1958710154634353e+00  -5.5760447947000547e+00  -4.1762955351172737e+00  -1.2733973302267854e+00  -3.7484926383943273e-01  3.7269836575712134e-01  1.6177098765287719e+00  2.5404685729531109e+00  3.4621686200602428e+00  5.5782258736012729e+00  6.2103496393000182e+00  6.5988999424857040e+00  7.0458341140746796e+00  7.9498175734001117e+00  8.4000469581721866e+00  8.5342264169532829e+00  8.5368682319470199e+00  8.4365082755962337e+00  7.9581423844767842e+00  6.9486585229124742e+00  6.5706801037505311e+00  6.2648608968108093e+00  5.8100554947186076e+00  4.0589373474725434e+00  3.3351727794036359e+00  2.5524232740620607e+00  1.3728875067399879e+00  4.8569642408099883e-01  -1.1086018777951943e+00  -3.1230330712197460e+00  -4.4736972962411548e+00  -5.4635539844387591e+00  -6.0436327220356780e+00  -6.3956527136113754e+00  -6.6138059207638973e+00  -6.7332278551984874e+00  -6.7822831595814810e+00  -6.7934241986304782e+00  -6.7932468512849216e+00  -1.3707017004403259e+01  -1.3704530237441386e+01  -1.3692101630372539e+01  -1.3635651419449255e+01  -1.3488009722044442e+01  -1.3208241573443395e+01  -1.2771311332635825e+01  -1.2143501797409943e+01  -1.1298471344014304e+01  -1.0139879990031220e+01  -8.8820888793084407e+00  -6.9752490156015190e+00  -5.0356436263307751e+00  -2.3988490110733429e+00  -1.4009571649921213e+00  -6.0626170028935955e-01  6.7841119456754040e-01  1.6173950375350215e+00  2.5394671768448500e+00  4.5926174597987082e+00  5.2289761150047411e+00  5.6192243400558342e+00  6.0119733984450709e+00  6.7459062974443462e+00  7.3287146601632074e+00  7.5017157419273328e+00  7.4882510273905458e+00  7.3474943674357771e+00  6.7461962587330166e+00  5.8453306357942614e+00  5.5102767621494921e+00  5.2283680494794673e+00  4.7740399975866108e+00  3.0853121976334150e+00  2.2879208911419360e+00  1.3513786548348936e+00  1.1567549364276809e-03  -9.9535435718837417e-01  -2.4628314999416716e+00  -4.4704745446869367e+00  -5.7470090369641049e+00  -6.6413653648864450e+00  -7.2530076348454413e+00  -7.6565087201264808e+00  -7.9156524647872448e+00  -8.0619299272326899e+00  -8.1239537555131331e+00  -8.1407096992744670e+00  -8.1440477088673084e+00  -1.5024608211403475e+01  -1.5027248043000917e+01  -1.5009407457843835e+01  -1.4939670636517455e+01  -1.4779687314356405e+01  -1.4493029425849146e+01  -1.4053331652162530e+01  -1.3448176676426780e+01  -1.2656625828204037e+01  -1.1674546465119688e+01  -1.0485435877156943e+01  -8.9326187082276878e+00  -6.9709941574689518e+00  -4.0062284710923812e+00  -2.4860483809381626e+00  -1.6052019777734858e+00  -2.6156598703852479e-01  6.9820757985038828e-01  1.6249620952962536e+00  3.6280412741633268e+00  4.2540658990576974e+00  4.6322011477067324e+00  4.9971268107645956e+00  5.7234758550372948e+00  6.3298663542631415e+00  6.5013649158509441e+00  6.4766867147298752e+00  6.3082782407417479e+00  5.6182750152588454e+00  4.7975925489811617e+00  4.4905249530608167e+00  4.2223961056284312e+00  3.7448505818710132e+00  2.1890657953019770e+00  1.1594767168639499e+00  -1.5891429245739035e-04  -1.4535814045352828e+00  -2.5080536276253520e+00  -3.9643737779716619e+00  -6.0731786574018516e+00  -7.3244559443616879e+00  -8.0285468871157413e+00  -8.6693559523866757e+00  -9.1619519770321922e+00  -9.4921454352316434e+00  -9.6839783686519478e+00  -9.7702953899454510e+00  -9.7864662845049217e+00  -9.7740235783316010e+00  -1.5995569128746531e+01  -1.5988616097402788e+01  -1.5968123101558767e+01  -1.5898589197248874e+01  -1.5737148881368670e+01  -1.5449011791248825e+01  -1.5012611556139143e+01  -1.4416854654755765e+01  -1.3659239515366998e+01  -1.2739038481760002e+01  -1.1620960155476133e+01  -1.0037668353633835e+01  -8.0855953819028734e+00  -5.8719270617714869e+00  -3.6986136216483643e+00  -2.6185831702153681e+00  -1.1769946123850024e+00  -1.9678107640175935e-01  7.3419226027728124e-01  2.7116679992860266e+00  3.3165126496583412e+00  3.6794156025062192e+00  4.0267488088484615e+00  4.7422953953525946e+00  5.3444547447342350e+00  5.5237712909898615e+00  5.5147511093286266e+00  5.3209355984189326e+00  4.5522420945757363e+00  3.8054350478594166e+00  3.5248820642046250e+00  3.2494247090751940e+00  2.7279806211806217e+00  1.2679224257691875e+00  -3.1117965969427525e-01  -1.7417884359332017e+00  -3.2479917077209794e+00  -4.6217643861581719e+00  -6.4178055581298139e+00  -8.6290166216787991e+00  -1.0002750105712325e+01  -1.0876070123372664e+01  -1.1547510946465614e+01  -1.1988035814981771e+01  -1.2258549995557745e+01  -1.2393559337371260e+01  -1.2435057132448158e+01  -1.2439537158884061e+01  -1.2452708272440441e+01  -1.6909198129660137e+01  -1.6916203505836290e+01  -1.6901051461861702e+01  -1.6827877577337386e+01  -1.6658545409650568e+01  -1.6360999213903085e+01  -1.5916477321500345e+01  -1.5315645195613547e+01  -1.4553385836128969e+01  -1.3627139031532906e+01  -1.2505986820212504e+01  -1.1075554476791599e+01  -9.2400175337692598e+00  -7.3891869366576506e+00  -5.3296667120882111e+00  -3.6335464157119426e+00  -2.0515536587383711e+00  -1.0470615059442021e+00  -1.1532911582441609e-01  1.8623951234805867e+00  2.4504882441569800e+00  2.8035201577950541e+00  3.0727484787664920e+00  3.5349968908347065e+00  4.2331512078352382e+00  4.5628543589473178e+00  4.5885501227444951e+00  4.2470423187952600e+00  3.4493426824634277e+00  2.8848340060897013e+00  2.6384548437249147e+00  2.3272327347459436e+00  1.7478262623325742e+00  1.1683948873494365e-01  -2.1601362470799113e+00  -3.5685109132004151e+00  -4.8207680068931280e+00  -6.3920318803262948e+00  -8.0631777248645946e+00  -9.8359020720127397e+00  -1.1067499841153865e+01  -1.1908888745636897e+01  -1.2529165748018524e+01  -1.2952221940747433e+01  -1.3222745971209928e+01  -1.3369119538726588e+01  -1.3434276113580976e+01  -1.3454265535195798e+01  -1.3451445050757112e+01  -1.7522837147013089e+01  -1.7519382536259908e+01  -1.7494075469007917e+01  -1.7414813228651489e+01  -1.7239610210561978e+01  -1.6933510881914845e+01  -1.6475112943659827e+01  -1.5854621467167142e+01  -1.5067840947554391e+01  -1.4108836576057879e+01  -1.2956641380860338e+01  -1.1555473036714179e+01  -9.8806216933710704e+00  -8.0682488106996875e+00  -6.3988488817889886e+00  -4.6833747907341472e+00  -2.8950324056109062e+00  -1.8400170557679203e+00  -9.0314468099842160e-01  1.0858950883408198e+00  1.6651092411385273e+00  2.0240674311937625e+00  2.3094109053806533e+00  2.5905985958525011e+00  2.9624611341769751e+00  3.5277353167356380e+00  3.4726128995825722e+00  2.9870969983739579e+00  2.3310306971155050e+00  2.0659424184502484e+00  1.8369798078916404e+00  1.4449077676400470e+00  7.4508815474804146e-01  -1.2761312076481448e+00  -3.5207727170665297e+00  -4.9246556499124230e+00  -6.4761221484149152e+00  -8.4849771559355407e+00  -9.9519834293593163e+00  -1.1181863363086528e+01  -1.2142605243835447e+01  -1.2917132492417108e+01  -1.3528853876818022e+01  -1.3963416850826286e+01  -1.4239322168714050e+01  -1.4384772437679640e+01  -1.4441049494373688e+01  -1.4449096394554607e+01  -1.4444335074045663e+01  -1.8510544559763161e+01  -1.8506766824812399e+01  -1.8481651827938023e+01  -1.8396886172229109e+01  -1.8210863289490540e+01  -1.7888848643249357e+01  -1.7409230350999501e+01  -1.6759963897946527e+01  -1.5932499118376043e+01  -1.4920100274687758e+01  -1.3714365100697854e+01  -1.2304545596339061e+01  -1.0696895265433326e+01  -8.9771684210126796e+00  -7.2943756866462897e+00  -5.6678129304789877e+00  -3.8708076783251086e+00  -2.5539572522733902e+00  -1.6013268222031436e+00  3.7890200450277572e-01  9.5623411645856138e-01  1.3395531161115819e+00  1.6301725713396231e+00  2.0186805337755560e+00  2.1759963232045001e+00  2.4008354746371792e+00  2.2987284107486241e+00  1.9002204413191859e+00  1.5838665937095924e+00  1.3752921258072768e+00  1.0983765397067959e+00  6.1194260601763328e-01  -2.3822565431144538e-01  -2.4806468490417810e+00  -4.7697959235312464e+00  -6.5331617357630360e+00  -8.3082343791893898e+00  -1.0167197481927230e+01  -1.1404867138823723e+01  -1.2454858884530843e+01  -1.3426887706805212e+01  -1.4269480317540411e+01  -1.4879956556918920e+01  -1.5302629952675419e+01  -1.5561143397284182e+01  -1.5697594382601160e+01  -1.5757169156227240e+01  -1.5777508570488301e+01  -1.5786881624849798e+01  -1.9204779441106542e+01  -1.9212311968791191e+01  -1.9188104931726375e+01  -1.9101964988471540e+01  -1.8909874745771130e+01  -1.8574676793405384e+01  -1.8076241324574337e+01  -1.7406243063469386e+01  -1.6557857458955475e+01  -1.5521786140068683e+01  -1.4294002407590110e+01  -1.2882641093997584e+01  -1.1309624062611592e+01  -9.6266613413191617e+00  -7.9178107296481022e+00  -6.2437159651598186e+00  -4.6512162794773895e+00  -3.2157190667538877e+00  -2.1871198010333384e+00  -2.6784323067583132e-01  3.1619637548792079e-01  7.2808539312788501e-01  1.0510399053825439e+00  1.5380168140618902e+00  1.6382009687656507e+00  1.6888239753925489e+00  1.5536992600985329e+00  1.3338967094083227e+00  1.1217194018588630e+00  6.9751032579616590e-01  2.9612274236730451e-01  -3.3848372081062117e-01  -1.6277680168418527e+00  -4.3281906606544673e+00  -6.7177777310023847e+00  -8.7113435856704271e+00  -1.0391921512197879e+01  -1.1803017190423631e+01  -1.2831833692769111e+01  -1.3740927013808555e+01  -1.4589035541288274e+01  -1.5354079947774945e+01  -1.5984141090971265e+01  -1.6412920054712327e+01  -1.6641882497837862e+01  -1.6762454433100803e+01  -1.6814354683199177e+01  -1.6818613276255185e+01  -1.6804672193461087e+01  -2.0375251045006628e+01  -2.0356651651361449e+01  -2.0303747239150173e+01  -2.0173483841434656e+01  -1.9924966790121278e+01  -1.9527263605835842e+01  -1.8965596953491872e+01  -1.8235887259190594e+01  -1.7333910933819119e+01  -1.6252122401492819e+01  -1.4987900412485123e+01  -1.3556973513570375e+01  -1.1990111496182188e+01  -1.0329581272202693e+01  -8.6213578825758805e+00  -6.9085871706303026e+00  -5.2861320683954345e+00  -3.7718745386346271e+00  -2.6733629101098941e+00  -9.1550225871541557e-01  -2.6594929994881428e-01  1.8237046145965502e-01  5.4832933809640971e-01  1.1037926154756781e+00  1.1907624411557494e+00  1.1888903356279357e+00  1.0528001554868307e+00  8.9856129386261097e-01  6.3072754872201409e-01  -1.5385329921438237e-01  -7.3505192559527632e-01  -1.6483440109400904e+00  -3.2818733033515159e+00  -5.6061045841510087e+00  -7.7753087169408985e+00  -9.7862998583092509e+00  -1.1343731505139969e+01  -1.2573278486832571e+01  -1.3549254815134086e+01  -1.4404816920268775e+01  -1.5233989517858632e+01  -1.6005894938927103e+01  -1.6678079789849317e+01  -1.7219623202803110e+01  -1.7618257092250619e+01  -1.7853403767507704e+01  -1.7946295970058181e+01  -1.7970101597937205e+01  -1.7982104689534427e+01  -2.1569507043261353e+01  -2.1584501039531531e+01  -2.1588236762848442e+01  -2.1528854078894749e+01  -2.1352704154283202e+01  -2.1014388804855006e+01  -2.0481173310987458e+01  -1.9735847334396187e+01  -1.8776762391596815e+01  -1.7616723066546442e+01  -1.6283038383767273e+01  -1.4812883807291815e+01  -1.3247173852804002e+01  -1.1626472527033322e+01  -9.9931075775873186e+00  -8.3961597431714914e+00  -6.8203033301550997e+00  -5.2820082013235776e+00  -3.8305310879013730e+00  -1.6464743165425553e+00  -8.2938426946730026e-01  -3.1321788043750382e-01  1.1082485273032049e-01  7.0707674177489999e-01  7.9370298548595897e-01  7.7755793119558647e-01  6.3390033128536127e-