<?xml version="1.0"?>
<VTKFile type="UnstructuredGrid"  version="0.1"  >
<UnstructuredGrid>
<Piece  NumberOfPoints="2401" NumberOfCells="4608">
<Points>
<DataArray  type="Float64"  NumberOfComponents="3"  format="ascii">0 0 0  0.001070538380698371 0 0  0.004277569313095364 0 0  0.009607359798386061 0 0  0.01703708685546806 0 0  0.02653493525245065 0 0  0.03806023374436157 0 0  0.05156362923366253 0 0  0.06698729810778931 0 0  0.08426519384873815 0 0  0.1033233298543955 0 0  0.1240800962605269 0 0  0.1464466094067445 0 0  0.1703270924499866 0 0  0.1956192854956637 0 0  0.2222148834902257 0 0  0.2500000000000299 0 0  0.2788556548905322 0 0  0.308658283817491 0 0  0.339280267348458 0 0  0.3705904774487813 0 0  0.4024548389919803 0 0  0.4347369038900211 0 0  0.467298435384978 0 0  0.5000000000000517 0 0  0.5327015646151253 0 0  0.5652630961100813 0 0  0.5975451610081212 0 0  0.6294095225513188 0 0  0.6607197326516399 0 0  0.6913417161826045 0 0  0.7211443451095605 0 0  0.7500000000000597 0 0  0.7777851165098603 0 0  0.8043807145044185 0 0  0.829672907550091 0 0  0.8535533905933287 0 0  0.8759199037395413 0 0  0.8966766701456674 0 0  0.9157348061513193 0 0  0.9330127018922625 0 0  0.9484363707663832 0 0  0.961939766255678 0 0  0.9734650647475827 0 0  0.9829629131445586 0 0  0.9903926402016341 0 0  0.9957224306869181 0 0  0.9989294616193084 0 0  1 0 0  0 0.02083333333333333 0  0.001070538380698371 0.02083333333333333 0  0.004277569313095364 0.02083333333333333 0  0.009607359798386061 0.02083333333333333 0  0.01703708685546806 0.02083333333333333 0  0.02653493525245065 0.02083333333333333 0  0.03806023374436157 0.02083333333333333 0  0.05156362923366253 0.02083333333333333 0  0.06698729810778931 0.02083333333333333 0  0.08426519384873815 0.02083333333333333 0  0.1033233298543955 0.02083333333333333 0  0.1240800962605269 0.02083333333333333 0  0.1464466094067445 0.02083333333333333 0  0.1703270924499866 0.02083333333333333 0  0.1956192854956637 0.02083333333333333 0  0.2222148834902257 0.02083333333333333 0  0.2500000000000299 0.02083333333333333 0  0.2788556548905322 0.02083333333333333 0  0.308658283817491 0.02083333333333333 0  0.339280267348458 0.02083333333333333 0  0.3705904774487813 0.02083333333333333 0  0.4024548389919803 0.02083333333333333 0  0.4347369038900211 0.02083333333333333 0  0.467298435384978 0.02083333333333333 0  0.5000000000000517 0.02083333333333333 0  0.5327015646151253 0.02083333333333333 0  0.5652630961100813 0.02083333333333333 0  0.5975451610081212 0.02083333333333333 0  0.6294095225513188 0.02083333333333333 0  0.6607197326516399 0.02083333333333333 0  0.6913417161826045 0.02083333333333333 0  0.7211443451095605 0.02083333333333333 0  0.7500000000000597 0.02083333333333333 0  0.7777851165098603 0.02083333333333333 0  0.8043807145044185 0.02083333333333333 0  0.829672907550091 0.02083333333333333 0  0.8535533905933287 0.02083333333333333 0  0.8759199037395413 0.02083333333333333 0  0.8966766701456674 0.02083333333333333 0  0.9157348061513193 0.02083333333333333 0  0.9330127018922625 0.02083333333333333 0  0.9484363707663832 0.02083333333333333 0  0.961939766255678 0.02083333333333333 0  0.9734650647475827 0.02083333333333333 0  0.9829629131445586 0.02083333333333333 0  0.9903926402016341 0.02083333333333333 0  0.9957224306869181 0.02083333333333333 0  0.9989294616193084 0.02083333333333333 0  1 0.02083333333333333 0  0 0.04166666666666666 0  0.001070538380698371 0.04166666666666666 0  0.004277569313095364 0.04166666666666666 0  0.009607359798386061 0.04166666666666666 0  0.01703708685546806 0.04166666666666666 0  0.02653493525245065 0.04166666666666666 0  0.03806023374436157 0.04166666666666666 0  0.05156362923366253 0.04166666666666666 0  0.06698729810778931 0.04166666666666666 0  0.08426519384873815 0.04166666666666666 0  0.1033233298543955 0.04166666666666666 0  0.1240800962605269 0.04166666666666666 0  0.1464466094067445 0.04166666666666666 0  0.1703270924499866 0.04166666666666666 0  0.1956192854956637 0.04166666666666666 0  0.2222148834902257 0.04166666666666666 0  0.2500000000000299 0.04166666666666666 0  0.2788556548905322 0.04166666666666666 0  0.308658283817491 0.04166666666666666 0  0.339280267348458 0.04166666666666666 0  0.3705904774487813 0.04166666666666666 0  0.4024548389919803 0.04166666666666666 0  0.4347369038900211 0.04166666666666666 0  0.467298435384978 0.04166666666666666 0  0.5000000000000517 0.04166666666666666 0  0.5327015646151253 0.04166666666666666 0  0.5652630961100813 0.04166666666666666 0  0.5975451610081212 0.04166666666666666 0  0.6294095225513188 0.04166666666666666 0  0.6607197326516399 0.04166666666666666 0  0.6913417161826045 0.04166666666666666 0  0.7211443451095605 0.04166666666666666 0  0.7500000000000597 0.04166666666666666 0  0.7777851165098603 0.04166666666666666 0  0.8043807145044185 0.04166666666666666 0  0.829672907550091 0.04166666666666666 0  0.8535533905933287 0.04166666666666666 0  0.8759199037395413 0.04166666666666666 0  0.8966766701456674 0.04166666666666666 0  0.9157348061513193 0.04166666666666666 0  0.9330127018922625 0.04166666666666666 0  0.9484363707663832 0.04166666666666666 0  0.961939766255678 0.04166666666666666 0  0.9734650647475827 0.04166666666666666 0  0.9829629131445586 0.04166666666666666 0  0.9903926402016341 0.04166666666666666 0  0.9957224306869181 0.04166666666666666 0  0.9989294616193084 0.04166666666666666 0  1 0.04166666666666666 0  0 0.0625 0  0.001070538380698371 0.0625 0  0.004277569313095364 0.0625 0  0.009607359798386061 0.0625 0  0.01703708685546806 0.0625 0  0.02653493525245065 0.0625 0  0.03806023374436157 0.0625 0  0.05156362923366253 0.0625 0  0.06698729810778931 0.0625 0  0.08426519384873815 0.0625 0  0.1033233298543955 0.0625 0  0.1240800962605269 0.0625 0  0.1464466094067445 0.0625 0  0.1703270924499866 0.0625 0  0.1956192854956637 0.0625 0  0.2222148834902257 0.0625 0  0.2500000000000299 0.0625 0  0.2788556548905322 0.0625 0  0.308658283817491 0.0625 0  0.339280267348458 0.0625 0  0.3705904774487813 0.0625 0  0.4024548389919803 0.0625 0  0.4347369038900211 0.0625 0  0.467298435384978 0.0625 0  0.5000000000000517 0.0625 0  0.5327015646151253 0.0625 0  0.5652630961100813 0.0625 0  0.5975451610081212 0.0625 0  0.6294095225513188 0.0625 0  0.6607197326516399 0.0625 0  0.6913417161826045 0.0625 0  0.7211443451095605 0.0625 0  0.7500000000000597 0.0625 0  0.7777851165098603 0.0625 0  0.8043807145044185 0.0625 0  0.829672907550091 0.0625 0  0.8535533905933287 0.0625 0  0.8759199037395413 0.0625 0  0.8966766701456674 0.0625 0  0.9157348061513193 0.0625 0  0.9330127018922625 0.0625 0  0.9484363707663832 0.0625 0  0.961939766255678 0.0625 0  0.9734650647475827 0.0625 0  0.9829629131445586 0.0625 0  0.9903926402016341 0.0625 0  0.9957224306869181 0.0625 0  0.9989294616193084 0.0625 0  1 0.0625 0  0 0.08333333333333333 0  0.001070538380698371 0.08333333333333333 0  0.004277569313095364 0.08333333333333333 0  0.009607359798386061 0.08333333333333333 0  0.01703708685546806 0.08333333333333333 0  0.02653493525245065 0.08333333333333333 0  0.03806023374436157 0.08333333333333333 0  0.05156362923366253 0.08333333333333333 0  0.06698729810778931 0.08333333333333333 0  0.08426519384873815 0.08333333333333333 0  0.1033233298543955 0.08333333333333333 0  0.1240800962605269 0.08333333333333333 0  0.1464466094067445 0.08333333333333333 0  0.1703270924499866 0.08333333333333333 0  0.1956192854956637 0.08333333333333333 0  0.2222148834902257 0.08333333333333333 0  0.2500000000000299 0.08333333333333333 0  0.2788556548905322 0.08333333333333333 0  0.308658283817491 0.08333333333333333 0  0.339280267348458 0.08333333333333333 0  0.3705904774487813 0.08333333333333333 0  0.4024548389919803 0.08333333333333333 0  0.4347369038900211 0.08333333333333333 0  0.467298435384978 0.08333333333333333 0  0.5000000000000517 0.08333333333333333 0  0.5327015646151253 0.08333333333333333 0  0.5652630961100813 0.08333333333333333 0  0.5975451610081212 0.08333333333333333 0  0.6294095225513188 0.08333333333333333 0  0.6607197326516399 0.08333333333333333 0  0.6913417161826045 0.08333333333333333 0  0.7211443451095605 0.08333333333333333 0  0.7500000000000597 0.08333333333333333 0  0.7777851165098603 0.08333333333333333 0  0.8043807145044185 0.08333333333333333 0  0.829672907550091 0.08333333333333333 0  0.8535533905933287 0.08333333333333333 0  0.8759199037395413 0.08333333333333333 0  0.8966766701456674 0.08333333333333333 0  0.9157348061513193 0.08333333333333333 0  0.9330127018922625 0.08333333333333333 0  0.9484363707663832 0.08333333333333333 0  0.961939766255678 0.08333333333333333 0  0.9734650647475827 0.08333333333333333 0  0.9829629131445586 0.08333333333333333 0  0.9903926402016341 0.08333333333333333 0  0.9957224306869181 0.08333333333333333 0  0.9989294616193084 0.08333333333333333 0  1 0.08333333333333333 0  0 0.1041666666666667 0  0.001070538380698371 0.1041666666666667 0  0.004277569313095364 0.1041666666666667 0  0.009607359798386061 0.1041666666666667 0  0.01703708685546806 0.1041666666666667 0  0.02653493525245065 0.1041666666666667 0  0.03806023374436157 0.1041666666666667 0  0.05156362923366253 0.1041666666666667 0  0.06698729810778931 0.1041666666666667 0  0.08426519384873815 0.1041666666666667 0  0.1033233298543955 0.1041666666666667 0  0.1240800962605269 0.1041666666666667 0  0.1464466094067445 0.1041666666666667 0  0.1703270924499866 0.1041666666666667 0  0.1956192854956637 0.1041666666666667 0  0.2222148834902257 0.1041666666666667 0  0.2500000000000299 0.1041666666666667 0  0.2788556548905322 0.1041666666666667 0  0.308658283817491 0.1041666666666667 0  0.339280267348458 0.1041666666666667 0  0.3705904774487813 0.1041666666666667 0  0.4024548389919803 0.1041666666666667 0  0.4347369038900211 0.1041666666666667 0  0.467298435384978 0.1041666666666667 0  0.5000000000000517 0.1041666666666667 0  0.5327015646151253 0.1041666666666667 0  0.5652630961100813 0.1041666666666667 0  0.5975451610081212 0.1041666666666667 0  0.62
[...]
<PointData  Scalars="f_17182098"> 
<DataArray  type="Float64"  Name="f_17182098"  format="ascii">1.0000000000000011e+00  9.9891392905728837e-01  9.9566036363559696e-01  9.9025317692390180e-01  9.8271529440260796e-01  9.7307846399018583e-01  9.6138322171514901e-01  9.4767866235099529e-01  9.3202230038480027e-01  9.1448035878579359e-01  8.9512816150856578e-01  8.7404955029775033e-01  8.5133669465421435e-01  8.2709055355467953e-01  8.0142070765165196e-01  7.7444470956588518e-01  7.4628529188161252e-01  7.1707212595571779e-01  6.8693861720688687e-01  6.5602190209066569e-01  6.2446180904538096e-01  5.9239982723278639e-01  5.5997843710596107e-01  5.2733904976002721e-01  4.9462334927998025e-01  4.6197082005778817e-01  4.2951987829624555e-01  3.9740584388351324e-01  3.6576130425725395e-01  3.3471576746898046e-01  3.0439546448537708e-01  2.7492318829915047e-01  2.4641811594767196e-01  2.1899492679787530e-01  1.9276423608701626e-01  1.6783236001127735e-01  1.4430057355903511e-01  1.2226524705031087e-01  1.0181763133241467e-01  8.3043148658329416e-02  6.6020880528821435e-02  5.0823453964134326e-02  3.7516292041632301e-02  2.6156996249647388e-02  1.6794982942112700e-02  9.4710114324022647e-03  4.2168950583165877e-03  1.0553556464766077e-03  -1.7674898529329759e-15  1.0000000000000002e+00  9.9891397000749593e-01  9.9566053198187743e-01  9.9025356264697184e-01  9.8271597420142798e-01  9.7307944404405500e-01  9.6138423645088933e-01  9.4767934765139927e-01  9.3202223714633814e-01  9.1447896897500458e-01  8.9512466530030133e-01  8.7404357560334922e-01  8.5132774731864702e-01  8.2707849737617634e-01  8.0140520170261242e-01  7.7442592749677541e-01  7.4626336261418280e-01  7.1704730016459051e-01  6.8691146394199742e-01  6.5599297137641832e-01  6.2443161038108264e-01  5.9236871119924772e-01  5.5994706023230578e-01  5.2730798920439825e-01  4.9459314281712685e-01  4.6194205409738870e-01  4.2949307924424629e-01  3.9738124893072263e-01  3.6573912136242098e-01  3.3469624839799100e-01  3.0437884305442936e-01  2.7490942560659987e-01  2.4640704947569100e-01  2.1898668551153563e-01  1.9275853018123248e-01  1.6782889538829479e-01  1.4429906429094716e-01  1.2226536028276953e-01  1.0181893764257653e-01  8.3045251942248252e-02  6.6023432118299349e-02  5.0826034988094966e-02  3.7518599027963971e-02  2.6158875442427527e-02  1.6796336322412321e-02  9.4718443535745222e-03  4.2172883371645910e-03  1.0554576038959464e-03  -1.0921081544708832e-15  1.0000000000000004e+00  9.9891406546325678e-01  9.9566092374536297e-01  9.9025446797031513e-01  9.8271757579068408e-01  9.7308182169588830e-01  9.6138725569132288e-01  9.4768242695303373e-01  9.3202461035972062e-01  9.1447945873707348e-01  8.9512169816345011e-01  8.7403598310028174e-01  8.5131487862185451e-01  8.2705911282297340e-01  8.0137878468468682e-01  7.7439205278026713e-01  7.4622295723514687e-01  7.1700032108957656e-01  6.8685899630685388e-01  6.5593623433999049e-01  6.2437172473886393e-01  5.9230662975346027e-01  5.5988401956847855e-01  5.2724549858888781e-01  4.9453236681747748e-01  4.6188408805870390e-01  4.2943888388644791e-01  3.9733195691468148e-01  3.6569535321278585e-01  3.3465848709593621e-01  3.0434739808883482e-01  2.7488443879472463e-01  2.4638836590511101e-01  2.1897382846919813e-01  1.9275110171739321e-01  1.6782614265795001e-01  1.4430008926076907e-01  1.2226926000671368e-01  1.0182487427962615e-01  8.3052207867528649e-02  6.6030535985998853e-02  5.0832629772703385e-02  3.7524169868270209e-02  2.6163153450361135e-02  1.6799313523008032e-02  9.4736280343895307e-03  4.2181195879504403e-03  1.0556716990146907e-03  -6.7063751656886403e-16  1.0000000000000000e+00  9.9891421968739025e-01  9.9566153947332237e-01  9.9025584226641195e-01  9.8271999069280103e-01  9.7308551107204833e-01  9.6139220586301188e-01  9.4768840275288502e-01  9.3203089397273498e-01  9.1448497776170568e-01  8.9512531109058902e-01  8.7403566497765928e-01  8.5130954343729792e-01  8.2704805828859440e-01  8.0136079139569494e-01  7.7436638412247782e-01  7.4618981763698811e-01  7.1696034458031987e-01  6.8681244648526762e-01  6.5588433015375902e-01  6.2431626967378295e-01  5.9224851553672930e-01  5.5982466506646544e-01  5.2718636455251600e-01  4.9447503628590045e-01  4.6182973134111416e-01  4.2938838851222255e-01  3.9728654680030473e-01  3.6565610796862874e-01  3.3462599168047102e-01  3.0432205589040434e-01  2.7486638994833218e-01  2.4637734536744577e-01  2.1896907791044565e-01  1.9275188593304074e-01  1.6783140281086384e-01  1.4430866033616169e-01  1.2228009444266609e-01  1.0183674623407094e-01  8.3064083551984982e-02  6.6041608474283295e-02  5.0842268980101218e-02  3.7532031704206256e-02  2.6169087981063203e-02  1.6803391399922922e-02  9.4760734266962805e-03  4.2192626009521818e-03  1.0559665429725178e-03  -1.1951956575392738e-15  1.0000000000000004e+00  9.9891447312678716e-01  9.9566253319183762e-01  9.9025801043736850e-01  9.8272367500225621e-01  9.7309098548568573e-01  9.6139980189783314e-01  9.4769793458193530e-01  9.3204201664580677e-01  9.1449747073666299e-01  8.9513798468442773e-01  8.7404745341070145e-01  8.5131857749732831e-01  8.2705359853428617e-01  8.0136220429329419e-01  7.7436253119069354e-01  7.4618000273819440e-01  7.1694516896329163e-01  6.8679201227820064e-01  6.5585913598981704e-01  6.2428756849879941e-01  5.9221752579048070e-01  5.5979235771640767e-01  5.2715383953883721e-01  4.9444358041464825e-01  4.6180045939954284e-01  4.2936208312849500e-01  3.9726417205904652e-01  3.6563858897079388e-01  3.3461392659050798e-01  3.0431586505128377e-01  2.7486617179315465e-01  2.4638267059464705e-01  2.1897926569899884e-01  1.9276595743828459e-01  1.6784819706693857e-01  1.4432709684980882e-01  1.2229908969188807e-01  1.0185518970880215e-01  8.3081111267860233e-02  6.6056602279584153e-02  5.0854908077344808e-02  3.7542170334954314e-02  2.6176732599399170e-02  1.6808644509102084e-02  9.4792153033503301e-03  4.2207291773236309e-03  1.0563448740145850e-03  -7.7986311122298905e-16  1.0000000000000002e+00  9.9891483558282934e-01  9.9566395515308259e-01  9.9026111904248715e-01  9.8272900390858930e-01  9.7309893038925499e-01  9.6141063904045088e-01  9.4771214925377356e-01  9.3205928656600645e-01  9.1451773368135858e-01  8.9516138208469576e-01  8.7407289392046328e-01  8.5134541930444596e-01  8.2708032582991586e-01  8.0138845739820819e-01  7.7438735713821449e-01  7.4620248123876254e-01  7.1696485969104962e-01  6.8680911816010837e-01  6.5587349859667710e-01  6.2429932572424574e-01  5.9222784001021511e-01  5.5980135214391391e-01  5.2716255035600734e-01  4.9445225117564684e-01  4.6180985943449798e-01  4.2937279642830956e-01  3.9727663271628666e-01  3.6565347878686322e-01  3.3463170067902709e-01  3.0433672776798193e-01  2.7489011010267539e-01  2.4640927200716084e-01  2.1900795175189794e-01  1.9279582172853957e-01  1.6787830480184032e-01  1.4435654549435484e-01  1.2232692504976282e-01  1.0188064568060637e-01  8.3103592465552045e-02  6.6075842232140858e-02  5.0870857553702520e-02  3.7554855286541095e-02  2.6186235121991742e-02  1.6815149804456295e-02  9.4830836684893696e-03  4.2225233328944643e-03  1.0568059519946199e-03  -1.0713571352347743e-15  9.9999999999999978e-01  9.9891531960908886e-01  9.9566584927739976e-01  9.9026525247607622e-01  9.8273608628134457e-01  9.7310955342969385e-01  9.6142535298266130e-01  9.4773134125906100e-01  9.3208376146270000e-01  9.1454708952182351e-01  8.9519590103845204e-01  8.7411303368401305e-01  8.5139046513451566e-01  8.2713002959679471e-01  8.0144162184262346e-01  7.7444362393966426e-01  7.4626066005475322e-01  7.1702405019710458e-01  6.8686889617586655e-01  6.5593349492772268e-01  6.2435874937712343e-01  5.9228667894345011e-01  5.5985949530566070e-01  5.2721992544112073e-01  4.9450875046255260e-01  4.6186542780656265e-01  4.2942757718141028e-01  3.9733064604407203e-01  3.6570667363590775e-01  3.3468448902237691e-01  3.0438896133626631e-01  2.7494159060094764e-01  2.4645979942845411e-01  2.1905707709131053e-01  1.9284292206990675e-01  1.6792275936143242e-01  1.4439766325584336e-01  1.2236410207764735e-01  1.0191348604689590e-01  8.3131977661394726e-02  6.6099815841156886e-02  5.0890457854490895e-02  3.7570223297785123e-02  2.6197625370212772e-02  1.6822896136909071e-02  9.4876711415513709e-03  4.2246428066776039e-03  1.0573488668965524e-03  -9.7021986945235170e-16  1.0000000000000000e+00  9.9891593838022019e-01  9.9566827346309095e-01  9.9027053659956477e-01  9.8274516059311945e-01  9.7312317873682452e-01  9.6144408446179797e-01  9.4775598900900937e-01  9.3211503937636242e-01  9.1458589262073997e-01  8.9524236430428739e-01  8.7416767731141887e-01  8.5145397052441552e-01  8.2720210249722248e-01  8.0152192172980063e-01  7.7453147371301645e-01  7.4635499560660190e-01  7.1712366643039283e-01  6.8697269972645569e-01  6.5604047774059504e-01  6.2446790514895267e-01  5.9239697059318630e-01  5.5996992188251227e-01  5.2732924212654586e-01  4.9461623750064282e-01  4.6197035523935126e-01  4.2952949145111513e-01  3.9742887202904192e-01  3.6580078055205667e-01  3.3477439349967059e-01  3.0447438465224969e-01  2.7502220489082502e-01  2.4653549137753758e-01  2.1912765803504927e-01  1.9290802047552635e-01  1.6798205696820631e-01  1.4445081473823709e-01  1.2241098120473354e-01  1.0195415578573822e-01  8.3166606862403028e-02  6.6128629626517818e-02  5.0913755722892556e-02  3.7588333249428112e-02  2.6210929440352367e-02  1.6831883382303112e-02  9.4929672091289066e-03  4.2270804895290209e-03  1.0579715066742017e-03  -1.3050796293744504e-15  1.0000000000000002e+00  9.9891669595403287e-01  9.9567124525993556e-01  9.9027701641509525e-01  9.8275621575101080e-01  9.7313982483552908e-01  9.6146725150522150e-01  9.4778622734321250e-01  9.3215339950730292e-01  9.1463359985972126e-01  8.9530047727147055e-01  8.7423695980010463e-01  8.5153507767912984e-01  8.2729575094788754e-01  8.0162790268914608e-01  7.7464901104259720e-01  7.4648367464099818e-01  7.1726200001312823e-01  6.8711907002743511e-01  6.5619340884760990e-01  6.2462547469334406e-01  5.9255761917794936e-01  5.6013187678383858e-01  5.2749033898782838e-01  4.9477451544903933e-01  4.6212463162656259e-01  4.2967849448775136e-01  3.9757133360251973e-01  3.6593592897629351e-01  3.3490158951758392e-01  3.0459314291107087e-01  2.7513225604149455e-01  2.4663663831583341e-01  2.1921986825998360e-01  1.9299126225619417e-01  1.6805634893295243e-01  1.4451627447357565e-01  1.2246786539464276e-01  1.0200293426669298e-01  8.3207689559417986e-02  6.6162499373850034e-02  5.0940983235639378e-02  3.7609402186053270e-02  2.6226339436567093e-02  1.6842242196359634e-02  9.4990522232712999e-03  4.2298782851041428e-03  1.0586861834323686e-03  -3.2249537915742019e-16  9.9999999999999956e-01  9.9891758695628063e-01  9.9567474301951520e-01  9.9028466149834449e-01  9.8276931487460550e-01  9.7315939234274196e-01  9.6149438722577696e-01  9.4782220852516197e-01  9.3219911081466955e-01  9.1469034996142318e-01  8.9536971629624451e-01  8.7432011540666121e-01  8.5163299785787905e-01  8.2740925413060395e-01  8.0175751632744574e-01  7.7479424374910599e-01  7.4664366668397897e-01  7.1743567648705631e-01  6.8730463168136524e-01  6.5638889125692412e-01  6.2482836795054408e-01  5.9276525452190187e-01  5.6034198575899041e-01  5.2770018546663933e-01  4.9498131852316235e-01  4.6232603623350949e-01  4.2987268005633367e-01  3.9775645837186607e-01  3.6611056761285471e-01  3.3506477116019695e-01  3.0474431059116730e-01  2.7527101051595410e-01  2.4676279235227566e-01  2.1933341352311561e-01  1.9309250932297362e-01  1.6814565150551716e-01  1.4459414693648892e-01  1.2253493492925654e-01  1.0205994410720064e-01  8.3255444275251861e-02  6.6201698878592147e-02  5.0972319143644022e-02  3.7633550612365382e-02  2.6243950923653399e-02  1.6854045537002479e-02  9.5059578772130390e-03  4.2330404530691122e-03  1.0594917394019998e-03  -1.1483553924725816e-15  1.0000000000000011e+00  9.9891859871448863e-01  9.9567871897284899e-01  9.9029336335560136e-01  9.8278427464748286e-01  9.7318197182223354e-01  9.6152566650193383e-01  9.4786346717976799e-01  9.3225196350654871e-01  9.1475613670492539e-01  8.9544992972377790e-01  8.7441624524103434e-01  8.5174661279542763e-01  8.2754111420812837e-01  8.0190832933613809e-01  7.7496412356891309e-01  7.4683183931646602e-01  7.1764088531747494e-01  6.8752513469411536e-01  6.5662215342975350e-01  6.2507190135817903e-01  5.9301549695488287e-01  5.6059582001860941e-01  5.2795448782035648e-01  4.9523268461041869e-01  4.6257122201182604e-01  4.3010889760235138e-01  3.9798163310733664e-01  3.6632256829521398e-01  3.3526209444468014e-01  3.0492630304869700e-01  2.7543723643797008e-01  2.4691300849244510e-01  2.1946775384227185e-01  1.9321142808524827e-01  1.6824977043740993e-01  1.4468431381271138e-01  1.2261214921562547e-01  1.0212526959209749e-01  8.3309938786069127e-02  6.6246276021951975e-02  5.1007764803599538e-02  3.7660702161159597e-02  2.6263636053270738e-02  1.6867152954525941e-02  9.5135882487336516e-03  4.2365222210040679e-03  1.0603769384662615e-03  -7.6512001027913724e-16  1.0000000000000002e+00  9.9891972191656153e-01  9.9568313730178071e-01  9.9030305356697912e-01  9.8280095256952293e-01  9.7320715802672997e-01  9.6156086767287241e-01  9.4790998365057644e-01  9.3231134539336358e-01  9.1483019695822010e-01  8.9554028718473977e-01  8.7452443059307972e-01  8.5187421758048854e-01  8.2768937362039696e-01  8.0207812323699423e-01  7.7515575659677172e-01  7.4704476161205513e-01  7.1787379100888571e-01  6.8777611553845308e-01  6.5688876275269092e-01  6.2535091767283568e-01  5.9330342730664054e-01  5.6088857928700220e-01  5.2824838340518532e-01  4.9552391576447335e-01  4.6285580820932015e-01  4.3038337240578006e-01  3.9824314210919837e-01  3.6656893026544241e-01  3.3549127648003146e-01  3.0513722092915230e-01  2.7562928883603366e-01  2.4708599574362408e-01  2.1962191390169022e-01  1.9334733279088928e-01  1.6836832521995548e-01  1.4478669694746998e-01  1.2269962533330006e-01  1.0219903171494102e-01  8.3371197646526854e-02  6.6296201333068072e-02  5.1047363340555499e-02  3.7690914065268005e-02  2.6285426351112983e-02  1.6881603398243700e-02  9.5219775865432472e-03  4.2403448669910190e-03  1.0613478954061397e-03  -5.4610261102289233e-16  1.0000000000000002e+00  9.9892094801285281e-01  9.9568796577142593e-01  9.9031366816131372e-01  9.8281930039738219e-01  9.7323491301057719e-01  9.6159955991981838e-01  9.4796127139641029e-01  9.3237675747758164e-01  9.1491159434346303e-01  8.9563952289334070e-01  8.7464326688125427e-01  8.5201420732790767e-01  8.2785207760006607e-01  8.0226441802577531e-01  7.7536624107530694e-01  7.4727889357805177e-01  7.1813042652888603e-01  6.8805324497358966e-01  6.5718372164729588e-01  6.2566052595223509e-01  5.9362383286252030e-01  5.6121524395787348e-01  5.2857690590035122e-01  4.9585003249859438e-01  4.6317524574361241e-01  4.3069194343293909e-01  3.9853735537387364e-01  3.6684623205668321e-01  3.3574949177840635e-01  3.0537472460772075e-01  2.7584531893505437e-01  2.4728032839411140e-01  2.1979484579443354e-01  1.9349956853038261e-01  1.6850103336207833e-01  1.4490115125009964e-01  1.2279712185037329e-01  1.0228100172227544e-01  8.3439112224675399e-02  6.6351367541203118e-02  5.1090967426090712e-02  3.7724034335872986e-02  2.6309200809362065e-02  1.6897304890490055e-02  9.5310588322163551e-03  4.2444719752169936e-03  1.0623943631916960e-03  -6.0936224982447470e-16  1.0000000000000004e+00  9.9892226994416333e-01  9.9569317673588331e-01  9.9032513171833558e-01  9.8283913041245130e-01  9.7326503379269846e-01  9.6164165650589317e-01  9.4801695817268772e-01  9.3244776399151519e-01  9.1499959063006164e-01  8.9574672315754600e-01  8.7477156052074645e-01  8.5216544075957057e-01  8.2802764653877026e-01  8.0246544847422618e-01  7.7559305893374930e-01  7.4753148241948852e-01  7.1840746446752357e-01  6.8835288643944814e-01  6.5750303930682785e-01  6.2599609742104734e-01  5.9397167728034250e-01  5.6157081935329289e-01  5.2893519349645934e-01  4.9620626818269753e-01  4.6352478481792397e-01  4.3103037126851762e-01  3.9886069439152461e-01  3.6715130101990379e-01  3.3603385983209055e-01  3.0563650727487285e-01  2.7608352757392690e-01  2.4749463720423268e-01  2.1998543241562454e-01  1.9366727748157594e-01  1.6864702846353183e-01  1.4502688091082602e-01  1.2290405570789945e-01  1.0237079761947446e-01  8.3513353865209430e-02  6.6411480892065736e-02  5.1138286270477964e-02  3.7759844861120107e-02  2.6334827521569217e-02  1.6914184150943770e-02  9.5407904937493005e-03  4.2488809317720770e-03  1.0635102324090216e-03  -4.9921722844421647e-16  1.0000000000000007e+00  9.9892367303653684e-01  9.9569871845488345e-01  9.9033735079714091e-01  9.8286028990343988e-01  9.7329714911646459e-01  9.6168662887169776e-01  9.4807651982843111e-01  9.3252373469383643e-01  9.1509379222826304e-01  8.9586107772046430e-01  8.7490832199374569e-01  8.5232652200626113e-01  8.2821469494577271e-01  8.0267931301897466e-01  7.7583433122756629e-01  7.4779990804502994e-01  7.1870209304961874e-01  6.8867160592189980e-01  6.5784308725565765e-01  6.2635372568748182e-01  5.9434278223421877e-01  5.6195067416587952e-01  5.2931867901720375e-01  4.9658821438203277e-01  4.6390024888828885e-01  4.3139455423288153e-01  3.9920951792849640e-01  3.6748101196986888e-01  3.3634167199598997e-01  3.0592031238512912e-01  2.7634203886637959e-01  2.4772737788748753e-01  2.2019249673502159e-01  1.9384946984718604e-01  1.6880548845958937e-01  1.4516319555015750e-01  1.2301993158046513e-01  1.0246797543489558e-01  8.3593565488821020e-02  6.6476294647013504e-02  5.1189159085282453e-02  3.7798230299662873e-02  2.6362216396836127e-02  1.6932179602795742e-02  9.5511471384099236e-03  4.2535623961357386e-03  1.0646925942541946e-03  -1.7127709543108265e-15  1.0000000000000011e+00  9.9892513884984113e-01  9.9570451934918391e-01  9.9035018044228829e-01  9.8288258813397611e-01  9.7333106343853737e-01  9.6173409101868057e-01  9.4813940753855497e-01  9.3260383940966285e-01  9.1519319525604748e-01  8.9598186575259486e-01  8.7505260119766581e-01  8.5249625643794624e-01  8.2841168491975825e-01  8.0290463021516900e-01  7.7608828429817156e-01  7.4808237041951220e-01  7.1901181517934265e-01  6.8900662275377411e-01  6.5820046536737054e-01  6.2672984529274900e-01  5.9473332913821320e-01  5.6235083820511111e-01  5.2972331865290545e-01  4.9699190903801210e-01  4.6429777190315069e-01  4.3178091633743609e-01  3.9958033758427758e-01  3.6783232385507392e-01  3.3667024779680538e-01  3.0622383535871650e-01  2.7661892921880965e-01  2.4797695583344259e-01  2.2041481663281937e-01  1.9404518099719173e-01  1.6897580706548207e-01  1.4530971008419993e-01  1.2314450889119859e-01  1.0257240614519655e-01  8.3679584151063649e-02  6.6545609824379987e-02  5.1243451449736091e-02  3.7839152612610574e-02  2.6391394616461873e-02  1.6951314867995542e-02  9.5621297745616032e-03  4.2585187201876606e-03  1.0659436901468749e-03  -1.1206084603844823e-15  1.0000000000000002e+00  9.9892665378470469e-01  9.9571052433243135e-01  9.9036349225349085e-01  9.8290579058937688e-01  9.7336646502702673e-01  9.6178374704180603e-01  9.4820524446009702e-01  9.3268776401900821e-01  9.1529728891050721e-01  8.9610838210701471e-01  8.7520373356754755e-01  8.5267392103103834e-01  8.2861746440312956e-01  8.0313986005717619e-01  7.7635341481965492e-01  7.4837687804017838e-01  7.1933455268024671e-01  6.8935545242340590e-01  6.5857249073956736e-01  6.2712138304582055e-01  5.9514001573049113e-01  5.6276788848640280e-01  5.3014544711836475e-01  4.9741375599199494e-01  4.6471387686261706e-01  4.3218618021555638e-01  3.9997008615130714e-01  3.6820242197732528e-01  3.3701719779655365e-01  3.0654504070478161e-01  2.7691253308366270e-01  2.4824204935157043e-01  2.2065130221981116e-01  1.9425354284881649e-01  1.6915729914129751e-01  1.4546587932089389e-01  1.2327723969770958e-01  1.0268355456211550e-01  8.3770989282145936e-02  6.6619177144698144e-02  5.1300977329221092e-02  3.7882376873186720e-02  2.6422097522479829e-02  1.6971371163636