<?xml version="1.0"?>
<VTKFile type="UnstructuredGrid"  version="0.1"  >
<UnstructuredGrid>
<Piece  NumberOfPoints="3915" NumberOfCells="6507">
<Points>
<DataArray  type="Float64"  NumberOfComponents="3"  format="ascii">1.25 0 0  1.249623523370255 0.03067653565364036 0  1.248494320256466 0.06133459290927252 0  1.246613070848363 0.09195570449958429 0  1.243980908340246 0.1225214254119508 0  1.240599418248387 0.1530133439990203 0  1.236470637455976 0.1834130930692022 0  1.231597052986177 0.2137023609503765 0  1.225981600504038 0.2438629025201603 0  1.219627662548161 0.2738765501960873 0  1.21253906649318 0.3037252248790798 0  1.2047200822443 0.333390946843623 0  1.196175419665261 0.3628558465680779 0  1.186910225741296 0.3921021754986144 0  1.176930081478776 0.4211123167402751 0  1.166240998543424 0.4498687956687352 0  1.154849415639108 0.4783542904563622 0  1.142762194629413 0.5065516425062373 0  1.129986616404304 0.5344438667878526 0  1.116530376494394 0.5620141620682582 0  1.102401580435444 0.5892459210324971 0  1.087608738885889 0.61612274028723 0  1.07216076250034 0.642628430241527 0  1.056066956562134 0.6687470248588714 0  1.039337015378182 0.6944627912745027 0  1.02198101643948 0.7197602392723067 0  1.004009414350806 0.7446241306155417 0  0.9854330345332579 0.7690394882257835 0  0.9662630667034212 0.7929916052045569 0  0.9465110581331058 0.8164660536922209 0  0.9261889066936989 0.8394486935587729 0  0.9053088536893338 0.8619256809213336 0  0.8838834764831844 0.8838834764831843 0  0.8619256809213337 0.9053088536893337 0  0.8394486935587729 0.9261889066936989 0  0.8164660536922209 0.9465110581331055 0  0.7929916052045569 0.9662630667034212 0  0.7690394882257835 0.9854330345332578 0  0.7446241306155419 1.004009414350806 0  0.7197602392723067 1.02198101643948 0  0.6944627912745028 1.039337015378182 0  0.6687470248588716 1.056066956562134 0  0.642628430241527 1.07216076250034 0  0.6161227402872301 1.087608738885889 0  0.5892459210324973 1.102401580435444 0  0.5620141620682583 1.116530376494394 0  0.5344438667878527 1.129986616404304 0  0.5065516425062373 1.142762194629413 0  0.4783542904563623 1.154849415639108 0  0.4498687956687353 1.166240998543424 0  0.4211123167402751 1.176930081478776 0  0.3921021754986145 1.186910225741296 0  0.3628558465680779 1.196175419665261 0  0.333390946843623 1.2047200822443 0  0.30372522487908 1.21253906649318 0  0.2738765501960872 1.219627662548161 0  0.2438629025201604 1.225981600504038 0  0.2137023609503767 1.231597052986177 0  0.1834130930692022 1.236470637455976 0  0.1530133439990203 1.240599418248387 0  0.122521425411951 1.243980908340246 0  0.09195570449958432 1.246613070848363 0  0.06133459290927266 1.248494320256466 0  0.03067653565364033 1.249623523370255 0  7.654042494670958e-17 1.25 0  -0.03067653565364018 1.249623523370255 0  -0.06133459290927251 1.248494320256466 0  -0.09195570449958416 1.246613070848363 0  -0.1225214254119508 1.243980908340246 0  -0.1530133439990202 1.240599418248387 0  -0.1834130930692021 1.236470637455976 0  -0.2137023609503766 1.231597052986177 0  -0.2438629025201602 1.225981600504038 0  -0.2738765501960871 1.219627662548161 0  -0.3037252248790798 1.21253906649318 0  -0.3333909468436229 1.2047200822443 0  -0.3628558465680777 1.196175419665261 0  -0.3921021754986143 1.186910225741296 0  -0.4211123167402749 1.176930081478776 0  -0.4498687956687352 1.166240998543424 0  -0.4783542904563621 1.154849415639108 0  -0.5065516425062372 1.142762194629413 0  -0.5344438667878524 1.129986616404304 0  -0.5620141620682584 1.116530376494394 0  -0.5892459210324972 1.102401580435444 0  -0.61612274028723 1.087608738885889 0  -0.642628430241527 1.07216076250034 0  -0.6687470248588713 1.056066956562134 0  -0.6944627912745025 1.039337015378182 0  -0.7197602392723067 1.02198101643948 0  -0.7446241306155417 1.004009414350806 0  -0.7690394882257834 0.9854330345332579 0  -0.7929916052045567 0.9662630667034213 0  -0.8164660536922207 0.9465110581331059 0  -0.8394486935587731 0.9261889066936988 0  -0.8619256809213337 0.9053088536893337 0  -0.8838834764831843 0.8838834764831844 0  -0.9053088536893334 0.8619256809213338 0  -0.9261889066936986 0.8394486935587732 0  -0.9465110581331058 0.8164660536922208 0  -0.9662630667034212 0.7929916052045569 0  -0.9854330345332578 0.7690394882257836 0  -1.004009414350806 0.7446241306155419 0  -1.02198101643948 0.7197602392723068 0  -1.039337015378182 0.6944627912745027 0  -1.056066956562134 0.6687470248588714 0  -1.07216076250034 0.6426284302415273 0  -1.087608738885889 0.6161227402872302 0  -1.102401580435444 0.5892459210324973 0  -1.116530376494394 0.5620141620682586 0  -1.129986616404304 0.5344438667878525 0  -1.142762194629413 0.5065516425062374 0  -1.154849415639108 0.4783542904563624 0  -1.166240998543424 0.4498687956687354 0  -1.176930081478776 0.4211123167402754 0  -1.186910225741296 0.3921021754986143 0  -1.196175419665261 0.362855846568078 0  -1.2047200822443 0.3333909468436231 0  -1.21253906649318 0.3037252248790801 0  -1.219627662548161 0.2738765501960876 0  -1.225981600504038 0.2438629025201608 0  -1.231597052986177 0.2137023609503765 0  -1.236470637455976 0.1834130930692023 0  -1.240599418248387 0.1530133439990204 0  -1.243980908340246 0.122521425411951 0  -1.246613070848363 0.09195570449958466 0  -1.248494320256466 0.06133459290927246 0  -1.249623523370255 0.03067653565364041 0  -1.25 1.530808498934192e-16 0  -1.249623523370255 -0.0306765356536401 0  -1.248494320256466 -0.06133459290927215 0  -1.246613070848363 -0.09195570449958437 0  -1.243980908340246 -0.1225214254119507 0  -1.240599418248387 -0.1530133439990201 0  -1.236470637455976 -0.183413093069202 0  -1.231597052986177 -0.2137023609503762 0  -1.225981600504038 -0.2438629025201605 0  -1.219627662548161 -0.2738765501960873 0  -1.21253906649318 -0.3037252248790798 0  -1.2047200822443 -0.3333909468436228 0  -1.196175419665261 -0.3628558465680776 0  -1.186910225741296 -0.392102175498614 0  -1.176930081478776 -0.4211123167402752 0  -1.166240998543424 -0.4498687956687352 0  -1.154849415639108 -0.4783542904563621 0  -1.142762194629413 -0.5065516425062371 0  -1.129986616404304 -0.5344438667878523 0  -1.116530376494394 -0.5620141620682583 0  -1.102401580435444 -0.5892459210324971 0  -1.087608738885889 -0.6161227402872299 0  -1.07216076250034 -0.6426284302415269 0  -1.056066956562134 -0.6687470248588712 0  -1.039337015378182 -0.6944627912745025 0  -1.02198101643948 -0.7197602392723067 0  -1.004009414350806 -0.7446241306155416 0  -0.9854330345332579 -0.7690394882257834 0  -0.9662630667034213 -0.7929916052045566 0  -0.946511058133106 -0.8164660536922207 0  -0.9261889066936989 -0.8394486935587731 0  -0.9053088536893338 -0.8619256809213336 0  -0.8838834764831847 -0.8838834764831843 0  -0.8619256809213338 -0.9053088536893334 0  -0.8394486935587733 -0.9261889066936986 0  -0.8164660536922214 -0.9465110581331053 0  -0.7929916052045574 -0.9662630667034209 0  -0.7690394882257841 -0.9854330345332574 0  -0.7446241306155414 -1.004009414350806 0  -0.7197602392723066 -1.02198101643948 0  -0.6944627912745027 -1.039337015378182 0  -0.6687470248588716 -1.056066956562134 0  -0.6426284302415273 -1.07216076250034 0  -0.6161227402872302 -1.087608738885889 0  -0.5892459210324973 -1.102401580435444 0  -0.5620141620682586 -1.116530376494394 0  -0.5344438667878531 -1.129986616404304 0  -0.506551642506238 -1.142762194629413 0  -0.4783542904563629 -1.154849415639108 0  -0.4498687956687349 -1.166240998543424 0  -0.4211123167402749 -1.176930081478776 0  -0.3921021754986143 -1.186910225741296 0  -0.3628558465680781 -1.196175419665261 0  -0.3333909468436231 -1.2047200822443 0  -0.3037252248790802 -1.21253906649318 0  -0.2738765501960876 -1.219627662548161 0  -0.2438629025201608 -1.225981600504038 0  -0.2137023609503771 -1.231597052986176 0  -0.1834130930692029 -1.236470637455976 0  -0.1530133439990199 -1.240599418248387 0  -0.1225214254119506 -1.243980908340246 0  -0.09195570449958419 -1.246613070848363 0  -0.06133459290927254 -1.248494320256466 0  -0.03067653565364049 -1.249623523370255 0  -2.296212748401287e-16 -1.25 0  0.03067653565364003 -1.249623523370255 0  0.06133459290927207 -1.248494320256466 0  0.09195570449958373 -1.246613070848363 0  0.1225214254119501 -1.243980908340246 0  0.1530133439990195 -1.240599418248387 0  0.1834130930692024 -1.236470637455976 0  0.2137023609503766 -1.231597052986177 0  0.2438629025201604 -1.225981600504038 0  0.2738765501960872 -1.219627662548161 0  0.3037252248790797 -1.21253906649318 0  0.3333909468436227 -1.2047200822443 0  0.3628558465680776 -1.196175419665261 0  0.3921021754986139 -1.186910225741296 0  0.4211123167402745 -1.176930081478776 0  0.4498687956687345 -1.166240998543424 0  0.4783542904563625 -1.154849415639108 0  0.5065516425062375 -1.142762194629413 0  0.5344438667878527 -1.129986616404304 0  0.5620141620682583 -1.116530376494394 0  0.589245921032497 -1.102401580435444 0  0.6161227402872298 -1.087608738885889 0  0.6426284302415269 -1.07216076250034 0  0.6687470248588712 -1.056066956562134 0  0.6944627912745023 -1.039337015378182 0  0.7197602392723061 -1.02198101643948 0  0.7446241306155411 -1.004009414350806 0  0.7690394882257838 -0.9854330345332576 0  0.792991605204557 -0.9662630667034211 0  0.8164660536922209 -0.9465110581331058 0  0.8394486935587729 -0.9261889066936989 0  0.8619256809213336 -0.9053088536893338 0  0.8838834764831842 -0.8838834764831847 0  0.9053088536893333 -0.8619256809213339 0  0.9261889066936986 -0.8394486935587733 0  0.9465110581331053 -0.8164660536922214 0  0.9662630667034209 -0.7929916052045574 0  0.9854330345332574 -0.7690394882257843 0  1.004009414350806 -0.7446241306155416 0  1.02198101643948 -0.7197602392723066 0  1.039337015378182 -0.6944627912745027 0  1.056066956562134 -0.6687470248588716 0  1.07216076250034 -0.6426284302415274 0  1.087608738885889 -0.6161227402872304 0  1.102401580435443 -0.5892459210324974 0  1.116530376494394 -0.5620141620682587 0  1.129986616404304 -0.5344438667878532 0  1.142762194629413 -0.50655164250623
[...]
<PointData  Scalars="f_4714"> 
<DataArray  type="Float64"  Name="f_4714"  format="ascii">-1.8028529257979813e+00  -2.3631183454303515e+00  -2.9147958088021872e+00  -3.4611457135613630e+00  -4.0131326467974029e+00  -4.5618257715478050e+00  -5.1101714231683850e+00  -5.6689986612723526e+00  -6.2064444147659739e+00  -6.7626405284697224e+00  -7.3257990172018106e+00  -7.8629651619098064e+00  -8.4305461519559906e+00  -8.9889508013906525e+00  -9.5527587579594986e+00  -1.0102432361507567e+01  -1.0690513694533664e+01  -1.1242068224266058e+01  -1.1832263143632206e+01  -1.2401841227051879e+01  -1.2984572831273866e+01  -1.3572111116080015e+01  -1.4169068001736568e+01  -1.4754535214686920e+01  -1.5372980989597647e+01  -1.5971525683237582e+01  -1.6591383958036168e+01  -1.7213946708491402e+01  -1.7849869250174823e+01  -1.8480002151678814e+01  -1.9136658144059798e+01  -1.9791423889277397e+01  -2.0454182480780773e+01  -2.1130027314478134e+01  -2.1824529247435940e+01  -2.2506744578369549e+01  -2.3226328844053405e+01  -2.3938814109704815e+01  -2.4678672441504272e+01  -2.5419623760737306e+01  -2.6198099997842171e+01  -2.6949613158993575e+01  -2.7759168284002232e+01  -2.8564284243622993e+01  -2.9383620141331583e+01  -3.0239655205042432e+01  -3.1089499654672814e+01  -3.1997159450831678e+01  -3.2867661411281581e+01  -3.3825811496111527e+01  -3.4756891518387754e+01  -3.5744341393612650e+01  -3.6729562297181076e+01  -3.7784563800077898e+01  -3.8803241169135823e+01  -3.9918836044134089e+01  -4.1022201671446460e+01  -4.2181122018026130e+01  -4.3380006267008262e+01  -4.4580100781851257e+01  -4.5863366757808102e+01  -4.7153736642089264e+01  -4.8503072557900239e+01  -4.9904488575141677e+01  -5.1328136620230012e+01  -5.2804381589209576e+01  -5.4367861979275268e+01  -5.5951040203829479e+01  -5.7608494424898929e+01  -5.9309714413291111e+01  -6.1106548861308347e+01  -6.2948735623249654e+01  -6.4886621572914081e+01  -6.6897103740399558e+01  -6.8882179319259308e+01  -7.1128143063746236e+01  -7.3350926536156209e+01  -7.5649448726545984e+01  -7.8166428247413592e+01  -8.0684295240163536e+01  -8.3250823799674038e+01  -8.6087312113210231e+01  -8.8926789358139004e+01  -9.1872104104583144e+01  -9.5056970162184456e+01  -9.8263900162543948e+01  -1.0161742668020801e+02  -1.0520038849666986e+02  -1.0883744669570888e+02  -1.1261088640995868e+02  -1.1666236852776684e+02  -1.2065071009238660e+02  -1.2505229626617785e+02  -1.2934878034977376e+02  -1.3398988524853030e+02  -1.3863557590954173e+02  -1.4354346766060706e+02  -1.4848341403468476e+02  -1.5356064598134287e+02  -1.5873608876173569e+02  -1.6394275437933487e+02  -1.6921641335737277e+02  -1.7445918602059768e+02  -1.7963213036521881e+02  -1.8470022940339646e+02  -1.8956791673013183e+02  -1.9417767825702182e+02  -1.9845232862876779e+02  -2.0220428107105434e+02  -2.0536945492400326e+02  -2.0782590381416304e+02  -2.0939765136712131e+02  -2.0997323085803077e+02  -2.0919435404116302e+02  -2.0697862242054313e+02  -2.0353828391549524e+02  -1.9822875967592017e+02  -1.9114390647832479e+02  -1.8206386562710335e+02  -1.7103931538723899e+02  -1.5804227466410950e+02  -1.4282063624541135e+02  -1.2556139522242650e+02  -1.0637952403030697e+02  -8.5564959384721448e+01  -6.3453217214833316e+01  -4.0159953497460755e+01  -1.6029621705398050e+01  8.4916990605942626e+00  3.2968948440191390e+01  5.6964413343049451e+01  8.0053512926596810e+01  1.0187678086594683e+02  1.2235228296361750e+02  1.4116193093083066e+02  1.5802432563194594e+02  1.7285557627480671e+02  1.8545541709428855e+02  1.9611131461318274e+02  2.0482849048201885e+02  2.1159025091176747e+02  2.1659003742332709e+02  2.1997492824787122e+02  2.2182621301605425e+02  2.2226899338468215e+02  2.2156150580329808e+02  2.1979612798848362e+02  2.1720928665370138e+02  2.1389682817329492e+02  2.1000447061981373e+02  2.0563235594235104e+02  2.0088013075735748e+02  1.9585753836373789e+02  1.9066370470158574e+02  1.8533008763451394e+02  1.7991906009958140e+02  1.7447125449567278e+02  1.6907800219375932e+02  1.6373564764496408e+02  1.5843881109569526e+02  1.5325428618408196e+02  1.4823207290167534e+02  1.4321152743931253e+02  1.3851258109194146e+02  1.3374451193038067e+02  1.2934526603391589e+02  1.2489188554139076e+02  1.2069150201396833e+02  1.1669017839442711e+02  1.1267407569156623e+02  1.0897087862480195e+02  1.0533315733328207e+02  1.0175108256529359e+02  9.8454261184213877e+01  9.5206852727995582e+01  9.1999009952947034e+01  8.9067257121099829e+01  8.6190607672960809e+01  8.3300481147941156e+01  8.0718961233411363e+01  7.8068870798835732e+01  7.5643289200241384e+01  7.3143940393401309e+01  7.0939894692991700e+01  6.8588696342808930e+01  6.6524023415003214e+01  6.4442672190660275e+01  6.2412576507036697e+01  6.0516394669897068e+01  5.8593324869446633e+01  5.6854246904689390e+01  5.5028543820046153e+01  5.3415404567165282e+01  5.1735063089134535e+01  5.0181153176595579e+01  4.8619217846504114e+01  4.7166086137599684e+01  4.5683903977917417e+01  4.4295786399852588e+01  4.2951770341266354e+01  4.1628487668057588e+01  4.0343784670485391e+01  3.9074653956141312e+01  3.7882647217831419e+01  3.6691099837756070e+01  3.5532294097225595e+01  3.4423901547901416e+01  3.3324597425525177e+01  3.2257168360742185e+01  3.1233994360269534e+01  3.0217500283417202e+01  2.9195605105017989e+01  2.8272029054831911e+01  2.7292394785764877e+01  2.6386815145213955e+01  2.5457541458095839e+01  2.4597546140150001e+01  2.3698167985740902e+01  2.2872844528910520e+01  2.2037958969295982e+01  2.1213619975398213e+01  2.0415352982951230e+01  1.9628633088680012e+01  1.8855567335754337e+01  1.8093997779311774e+01  1.7351637154920475e+01  1.6608190927786730e+01  1.5901797434304097e+01  1.5165708170215936e+01  1.4496330064639757e+01  1.3793485379749928e+01  1.3095150822045611e+01  1.2452640169633922e+01  1.1768356410694363e+01  1.1137744041286103e+01  1.0469846726026152e+01  9.8421409517971465e+00  9.2208544249506161e+00  8.5869985992783704e+00  7.9723107286106458e+00  7.3651940640077873e+00  6.7599451593932631e+00  6.1588599717141932e+00  5.5690587255988477e+00  4.9730007683459299e+00  4.3966997562036330e+00  3.8197508493489596e+00  3.2348177226359263e+00  2.6746866150930662e+00  2.0848802966772988e+00  1.5402196126951044e+00  9.7112389553579037e-01  4.0798592468886435e-01  -1.4740024741055510e-01  -7.0045568194679897e-01  -1.2662273694191661e+00  -4.8779435254744810e+00  -4.2144237410952217e+00  -3.5709458044063971e+00  -2.9333337744555186e+00  -2.2836611467892909e+00  -1.5925249389229541e+00  -9.2304443423510441e-01  -3.0254075469138497e-01  4.0465056560834406e-01  1.0814934467633610e+00  1.7076966681396528e+00  2.4273304048007054e+00  3.0936631666835490e+00  3.8356842931888959e+00  4.5299369695095226e+00  5.2655569486556715e+00  5.9999453145118915e+00  6.7027479871963997e+00  7.4355460952927963e+00  8.1496636470505752e+00  8.9760263702950738e+00  9.7208472222811757e+00  1.0492406860431146e+01  1.1239109558501449e+01  1.2092594302437515e+01  1.2888744260045918e+01  1.3707846667602739e+01  1.4564664355399218e+01  1.5422896652090275e+01  1.6336883189380032e+01  1.7178862366033350e+01  1.8106875484920344e+01  1.9045734722641281e+01  1.9918365031483575e+01  2.0882393055858333e+01  2.1856507721481744e+01  2.2899504434159763e+01  2.3884521384310055e+01  2.4947365843925645e+01  2.5958551787658472e+01  2.7045534753807122e+01  2.8109089319864882e+01  2.9279907726308981e+01  3.0398819083175127e+01  3.1605534925892933e+01  3.2813702097855625e+01  3.4048391307462580e+01  3.5260824799637803e+01  3.6591932773475428e+01  3.7905514977018662e+01  3.9342472544794092e+01  4.0718099416412400e+01  4.2080645971118564e+01  4.3581204845107870e+01  4.5077232189726949e+01  4.6635058356727619e+01  4.8250903999418099e+01  4.9876083224715586e+01  5.1513252486411389e+01  5.3288150778684781e+01  5.5115399354668988e+01  5.6971467387368079e+01  5.8815563273060000e+01  6.0812633795724224e+01  6.2812399109104042e+01  6.4905186899038583e+01  6.6923773560943289e+01  6.9175745565587505e+01  7.1407771502223099e+01  7.3802216627781220e+01  7.6335971316404468e+01  7.8748418773671645e+01  8.1347664779146442e+01  8.4062447440256591e+01  8.6795914407081611e+01  8.9638246315614225e+01  9.2515291675934478e+01  9.5603214792167293e+01  9.8655744517301230e+01  1.0186999092573238e+02  1.0520465869904838e+02  1.0868395424161726e+02  1.1221957751213739e+02  1.1579032190672275e+02  1.1954506510224525e+02  1.2343167871364859e+02  1.2731108705505711e+02  1.3143901684635401e+02  1.3565505042696361e+02  1.3991154233230796e+02  1.4435263185786846e+02  1.4878132800682664e+02  1.5337589044307293e+02  1.5790270820960998e+02  1.6269334228381831e+02  1.6735132805420881e+02  1.7215720233897449e+02  1.7677694226635330e+02  1.8159059223484107e+02  1.8624139559312530e+02  1.9089245771015285e+02  1.9535121901210101e+02  1.9950609977908798e+02  2.0367612370046780e+02  2.0744126146444674e+02  2.1091469033940299e+02  2.1389861853119575e+02  2.1649259048969213e+02  2.1840948608876232e+02  2.1976297410010241e+02  2.2018971870988983e+02  2.1991638717696483e+02  2.1868199390569910e+02  2.1639001608280267e+02  2.1296458795478063e+02  2.0829109696325355e+02  2.0236614815382481e+02  1.9506871572522664e+02  1.8635671387828347e+02  1.7625732359219788e+02  1.6464650153453508e+02  1.5153972322614152e+02  1.3709185977702487e+02  1.2133597430004141e+02  1.0437553753025661e+02  8.6375705650807276e+01  6.7428734367855910e+01  4.7807243187271155e+01  2.7669038746595039e+01  7.2743136885746900e+00  -1.3148210481112205e+01  -3.3375355432585593e+01  -5.3237608573825881e+01  -7.2293131922855693e+01  -9.0523823391740379e+01  -1.0775519906682297e+02  -1.2380007491771585e+02  -1.3855154500997031e+02  -1.5209347501129426e+02  -1.6391087818311115e+02  -1.7428956511285557e+02  -1.8300890101548944e+02  -1.9054249262073091e+02  -1.9669104423382106e+02  -2.0154146524337438e+02  -2.0522971321359640e+02  -2.0776568945872148e+02  -2.0972773592576888e+02  -2.1013559136842906e+02  -2.0971692494272651e+02  -2.0853057318491244e+02  -2.0659948281136909e+02  -2.0424486953419577e+02  -2.0127845155087604e+02  -1.9788353369232627e+02  -1.9414240910400517e+02  -1.9026859248480068e+02  -1.8610328262584056e+02  -1.8180109400774327e+02  -1.7722522494836133e+02  -1.7270590437826411e+02  -1.6804865732369714e+02  -1.6348239182369088e+02  -1.5896339958278568e+02  -1.5443024704493013e+02  -1.4999340163536212e+02  -1.4547202421463535e+02  -1.4109795135698738e+02  -1.3686542916933763e+02  -1.3268950870211916e+02  -1.2865266216803320e+02  -1.2480423157691160e+02  -1.2097428803006397e+02  -1.1717780687883510e+02  -1.1356106598159430e+02  -1.1009301772105744e+02  -1.0674889101541163e+02  -1.0344977621198372e+02  -1.0026099437378718e+02  -9.7199269692744707e+01  -9.4249997079674330e+01  -9.1431765597188530e+01  -8.8636702742346472e+01  -8.6035585853913460e+01  -8.3443543962192422e+01  -8.1035601485501388e+01  -7.8579239631959638e+01  -7.6359779337490622e+01  -7.4099127419686468e+01  -7.1947593305622917e+01  -6.9892789806835552e+01  -6.7901984866652768e+01  -6.5917668040889296e+01  -6.4138611087744053e+01  -6.2281975732910944e+01  -6.0567903542905846e+01  -5.8843373713367683e+01  -5.7187499459835443e+01  -5.5576250144825543e+01  -5.4140753750405054e+01  -5.2609697907150164e+01  -5.1214220053544381e+01  -4.9768927354909614e+01  -4.8381468280604778e+01  -4.7090642336519473e+01  -4.5821085651872622e+01  -4.4620664639583147e+01  -4.3360688598806483e+01  -4.2231864579594614e+01  -4.1053905103329029e+01  -3.9954713216729814e+01  -3.8840511464913178e+01  -3.7784076309843300e+01  -3.6773141674216141e+01  -3.5812483044802043e+01  -3.4783214236569393e+01  -3.3786140968658579e+01  -3.2876431488907130e+01  -3.1908170989646401e+01  -3.1032920384536713e+01  -3.0176627901387125e+01  -2.9289235502571753e+01  -2.8440765126874730e+01  -2.7602449498341969e+01  -2.6832728920792167e+01  -2.6029174931619657e+01  -2.5205125272312664e+01  -2.4471252322830296e+01  -2.3669134466457081e+01  -2.2960230042004707e+01  -2.2195669960396021e+01  -2.1459229365105152e+01  -2.0720919894493726e+01  -2.0031912355550773e+01  -1.9310683660344743e+01  -1.8631547781232999e+01  -1.7911300518667591e+01  -1.7297632683930196e+01  -1.6583503245139926e+01  -1.5938858428782225e+01  -1.5244030817186426e+01  -1.4553200157847215e+01  -1.3914478750009028e+01  -1.3239256816328252e+01  -1.2602042981194465e+01  -1.1937774554200097e+01  -1.1307327416873290e+01  -1.0633870653994419e+01  -1.0042903420835486e+01  -9.3875711997852527e+00  -8.7118845730747285e+00  -8.1291580213267931e+00  -7.4874037934659361e+00  -6.8388692216508433e+00  -6.1775380680318568e+00  -5.5260896334143554e+00  -1.7612176713687162e+00  -6.7238579522350204e+00  3.2125379819434050e+00  -1.1507639080297091e+01  8.5060250127354422e+00  -1.6378854428550664e+01  1.3816475805946000e+01  -2.1543026856469048e+01  1.9616543332821085e+01  -2.7246138764326886e+01  2.6384716986679745e+01  -3.2766045247153066e+01  3.2741455243648758e+01  -3.8535754020739397e+01  4.0414548164016111e+01  -4.4681947648356001e+01  4.8900391768544523e+01  -5.1230358164649935e+01  -4.0995393693105235e+00  5.6618291039626506e+01  8.4552459642284084e-01  -8.8221612063058839e+00  5.9537013959500795e+00  -4.4079103481544486e+00  5.7342934368463592e+00  8.5827949225990385e-01  -8.9734720336802436e+00  -5.8235277962441508e+01  1.1315424932633785e+01  -1.3788285915725787e+01  -1.3639917200378848e+01  6.4783880055440520e+01  1.0998382869226376e+01  -1.8793484527340503e+01  1.6838267827590034e+01  -1.8567654229265337e+01  1.6308827916672488e+01  -1.8696563627248592e+00  -6.5838364441587487e+01  -6.1977349690990922e+00  3.7313125542949117e+00  -1.8298946924119741e+00  -2.4222872129328362e+01  2.3136924619376881e+01  -1.0962818554661682e+01  -2.3942940082926405e+01  2.2743987491743347e+01  7.3796572306717124e+01  8.9368639968503452e+00  -1.6346394430421018e+01  1.4071380294830050e+01  -7.4008358419323827e+01  2.9570970234770879e+01  -2.9856419450521951e+01  8.2788682075230398e+00  3.2598133243257830e+00  8.2783729884900211e+01  -2.1775428306073266e+01  1.9955794550162967e+01  1.9271829945735863e+01  -2.9061934882931286e+01  -6.6812966973315282e+00  -1.1281416481557974e+01  2.9292226255798699e+01  -1.6060433220042110e+01  -2.1204233446224173e+01  -3.5276585263030739e+01  3.5975941676641057e+01  -8.3761861198336689e+01  -2.6584581776202395e+01  9.2156931193440386e+01  1.3457504482627023e+01  -3.5406416461032897e+01  3.6269097583358864e+01  2.5972963458433242e+01  2.5812122988552677e+01  -9.2813080123631806e+01  -9.5058493422869379e+00  1.2129062061423563e+00  -3.2400174621879529e+01  -4.1608260729183741e+01  4.4825241642829972e+01  -3.2057279343087352e+01  3.2601529555901607e+01  -4.8174306694611815e+00  1.0279406492156153e+02  4.3258824921962962e+01  -4.1476542941636765e+01  -1.4350161142666781e+01  -4.7835766768319893e+01  -2.6393871444310989e+01  1.0601718522148166e+01  3.2602390718606927e+01  5.1694357254945036e+00  -1.0270070742410468e+02  -3.8023643727855749e+01  3.9620273001622238e+01  1.6040329726886903e+01  5.2421726134225366e+01  -1.9410575713985381e+01  1.1385873086170474e+02  -3.1743857529744881e+00  -7.5918237937457880e+00  -2.7561145576852963e-01  -4.7881954917681391e+01  7.2966642260031760e+00  2.1743829032749091e+00  5.2537957613365052e+00  5.2368196693905119e+01  -1.2461615144842487e+01  -2.9503241690073459e+01  -6.6793599604945808e-01  -4.8022488705669986e+00  -1.1205749446671111e+02  -3.8300922209889634e+01  -1.2266488325385255e+01  -2.8873444435319380e+00  -4.4542719114961741e+01  -1.4782760876287249e+01  4.7202242317838746e+01  -5.3738221067415608e+01  -5.4622886059371012e+01  -2.8014046486482802e+00  4.6915199506071783e+00  -9.2943501583542112e+00  3.9559967821161067e+01  1.2626910201396662e+02  -2.3267841427835187e-01  2.3748071439633223e+00  -2.3534947383481192e+01  -5.3092872313895496e+00  -6.1935891644609917e+01  6.8470132121251917e+00  4.8308931415480892e+01  -3.5054991259696484e+00  5.9548344371297645e+01  -4.5871207459739727e-01  1.6695615274769506e+00  -1.2191800668684331e+02  6.0645430919527669e+01  1.2506565143520200e+01  1.0422024208224022e+01  9.7024617364836487e+00  -2.0022864835991410e+01  -8.1271725533755905e+00  -1.0138913139415603e+01  -5.4706944329554990e+00  7.2074768966372558e+00  -8.0850825391428369e+00  2.8896022180950503e+01  -2.0507188902126572e+01  -1.7740657520915594e+01  4.5075506847177484e+00  2.1937618615992907e+01  -1.5221616828100439e+01  -1.0150515768772415e+01  6.5689260747925395e+00  1.5113663842181129e+01  1.8195495356263088e+01  1.5730462132403170e+01  9.6383619026840073e+00  -5.0979838512613604e+01  2.4091151769932178e+01  -4.4528812223491741e+01  1.8080249787242721e+01  -7.7525810490963236e+00  -1.2706031229678905e+01  -1.4533215742882614e+01  1.2818103539946369e+01  2.1602978131593673e+00  9.4829231464702897e+00  -2.5687840327167788e+01  -3.5086431329377525e+01  6.9564542522518551e+01  1.3647049051984368e+02  -6.0363132220445316e+01  -2.3228442307214930e+01  -1.7886573046600855e+01  1.2703256364235907e+01  2.1335122593623154e+01  2.1850115916119332e+01  2.4211345624788997e+01  5.6189609536458150e+01  -1.9497011772838999e+01  -1.7598307161347588e+01  1.7825615942905017e+01  -1.2897885823595315e+01  1.7181782016542904e+01  1.5023494266346152e+01  6.7513843600172493e+01  -1.3390694170076287e+02  -6.9785326562149748e+01  -2.4973364515466923e+01  1.1524275676973108e+01  -5.6175925439533358e+00  -2.5513954943392775e+01  9.6479492690687529e-01  2.0779428705351943e+01  4.3847177802454480e+00  -5.8003654596286680e+01  -8.1086194698617442e-01  -1.0523986675876918e+01  -2.2966203493106686e+01  1.4761022555057218e+02  3.7362799534668014e+01  -1.7222044447264366e+01  8.0591783255890679e+00  1.4824152160096135e+01  -4.1050062031173034e+01  2.1257285380032592e+01  -6.9951819927439431e+01  2.3563506578866726e+01  -2.8189879031515982e+01  -3.0690969232698308e+01  -6.9396522915840944e+00  6.4581611626872913e+01  4.3390184622814431e+01  -2.0510324358776373e+01  -2.2525285813996476e+01  -1.4505618139251746e+02  -2.2426541015004211e+01  2.7985927271759000e+01  3.0768458857018253e+01  -7.9166073120183583e+01  -6.5369927319391872e+00  -2.1173322154425103e+00  -1.0390085184966706e+01  3.0813652193971861e+00  -1.4953802249793137e+01  7.7872187983783078e+01  7.6665910732807774e+01  -2.4766623627584483e+01  -6.8736147469157203e+00  4.1726244485447683e+00  4.2382014007055723e+01  -2.8068645709622277e+01  8.7314920755108787e+01  2.5067456397271695e+01  -6.5561501289575219e+01  1.6008754140948105e+02  -7.8507901270561504e+01  -3.1120506861113022e+01  -1.6127188860148973e+01  -1.3581798310082506e+01  -2.2256379467985834e+00  7.9524744122919451e+00  -6.4433774174330622e+01  -1.3307387634372025e+01  8.6801028018472721e+01  -3.1061275932646275e+01  2.8208889373997142e+01  -4.7346500338864374e+01  -1.5574166281371029e+02  2.7502022897500957e+01  8.4304338118106177e+00  3.0818663254828611e+01  -1.7510654441753069e+01  -3.6930978050277162e+01  3.4996322172492889e+01  7.2186532901308567e+01  3.7546373731368895e+01  3.4564932214093780e+01  -3.6256827364822009e+01  -3.3974339341029669e+01  1.7071689779345206e+02  1.2112654982630996e+01  3.5083346543030920e+01  5.3177758869690713e+01  5.5857464938669985e+01  -3.0477077928109210e+01  -2.8396964495158151e+01  3.1276552456537104e+01  2.7523408305631342e+01  -1.1434595317676393e+01  -5.0731641597155068e+01  -3.5087604547487210e+00  -5.5007480844820876e+01  1.8528208959657615e+01  -5.6960760609152516e+01  9.6505086099787576e+01  -8.7274290129437006e+01  -1.6652998238286308e+01  -1.6398981112714399e+01  6.3424985837134486e+01  -3.3969500982910361e+01  1.3677991989927783e+01  -2.7244374601211071e+01  -1.6554162362261744e+02  -7.4399846195548051e+01  8.1843917721020290e+01  3.4187046810325533e+01  4.6084421800941136e+01  -3.6058274483204336e+01  3.0979376676046266e+00  3.0464163515123744e+01  -2.1111022033600637e+01  -6.2166125045728350e+01  -3.9919133705376581e+01  -1.1433890447380719e+01  1.9388103050935211e+01