<?xml version="1.0"?>
<VTKFile type="UnstructuredGrid"  version="0.1"  >
<UnstructuredGrid>
<Piece  NumberOfPoints="2912" NumberOfCells="5086">
<Points>
<DataArray  type="Float64"  NumberOfComponents="3"  format="ascii">-20 2.5 0  -20 0 0  -1 0 0  -0.9996988186962042 0.02454122852291233 0  -0.9987954562051724 0.04906767432741797 0  -0.9972904566786902 0.07356456359966773 0  -0.9951847266721968 0.09801714032956083 0  -0.99247953459871 0.1224106751992163 0  -0.989176509964781 0.1467304744553618 0  -0.9852776423889412 0.1709618887603012 0  -0.9807852804032304 0.1950903220161286 0  -0.9757021300385285 0.21910124015687 0  -0.970031253194544 0.2429801799032641 0  -0.9637760657954398 0.2667127574748985 0  -0.9569403357322088 0.2902846772544624 0  -0.9495281805930367 0.3136817403988914 0  -0.9415440651830207 0.3368898533922203 0  -0.9329927988347388 0.3598950365349883 0  -0.9238795325112867 0.3826834323650899 0  -0.9142097557035307 0.4052413140049899 0  -0.9039892931234433 0.427555093430282 0  -0.8932243011955152 0.4496113296546069 0  -0.8819212643483549 0.4713967368259979 0  -0.8700869911087113 0.4928981922297841 0  -0.857728610000272 0.5141027441932218 0  -0.8448535652497071 0.5349976198870972 0  -0.8314696123025453 0.5555702330196022 0  -0.8175848131515836 0.5758081914178454 0  -0.8032075314806448 0.5956993044924335 0  -0.7883464276266062 0.6152315905806269 0  -0.773010453362737 0.6343932841636455 0  -0.7572088465064846 0.6531728429537766 0  -0.7409511253549589 0.6715589548470186 0  -0.7242470829514668 0.6895405447370671 0  -0.7071067811865475 0.7071067811865476 0  -0.6895405447370669 0.7242470829514669 0  -0.6715589548470184 0.740951125354959 0  -0.6531728429537765 0.7572088465064847 0  -0.6343932841636454 0.7730104533627371 0  -0.6152315905806267 0.7883464276266063 0  -0.5956993044924334 0.8032075314806449 0  -0.5758081914178453 0.8175848131515837 0  -0.555570233019602 0.8314696123025455 0  -0.534997619887097 0.8448535652497072 0  -0.5141027441932217 0.8577286100002721 0  -0.492898192229784 0.8700869911087115 0  -0.4713967368259977 0.881921264348355 0  -0.4496113296546067 0.8932243011955152 0  -0.4275550934302819 0.9039892931234434 0  -0.4052413140049897 0.9142097557035307 0  -0.3826834323650897 0.9238795325112867 0  -0.3598950365349882 0.9329927988347388 0  -0.3368898533922199 0.9415440651830208 0  -0.3136817403988914 0.9495281805930367 0  -0.2902846772544622 0.9569403357322089 0  -0.2667127574748983 0.9637760657954398 0  -0.2429801799032639 0.970031253194544 0  -0.2191012401568697 0.9757021300385286 0  -0.1950903220161282 0.9807852804032304 0  -0.1709618887603012 0.9852776423889412 0  -0.1467304744553616 0.989176509964781 0  -0.1224106751992162 0.99247953459871 0  -0.09801714032956065 0.9951847266721969 0  -0.07356456359966733 0.9972904566786902 0  -0.04906767432741801 0.9987954562051724 0  -0.02454122852291214 0.9996988186962042 0  6.123233995736766e-17 1 0  0.02454122852291226 0.9996988186962042 0  0.04906767432741813 0.9987954562051724 0  0.07356456359966745 0.9972904566786902 0  0.09801714032956077 0.9951847266721968 0  0.1224106751992163 0.99247953459871 0  0.1467304744553617 0.989176509964781 0  0.1709618887603014 0.9852776423889412 0  0.1950903220161283 0.9807852804032304 0  0.2191012401568698 0.9757021300385286 0  0.242980179903264 0.970031253194544 0  0.2667127574748984 0.9637760657954398 0  0.2902846772544623 0.9569403357322089 0  0.3136817403988916 0.9495281805930367 0  0.3368898533922201 0.9415440651830208 0  0.3598950365349883 0.9329927988347388 0  0.3826834323650898 0.9238795325112867 0  0.4052413140049899 0.9142097557035307 0  0.4275550934302822 0.9039892931234433 0  0.4496113296546066 0.8932243011955153 0  0.4713967368259978 0.8819212643483549 0  0.4928981922297841 0.8700869911087113 0  0.5141027441932217 0.8577286100002721 0  0.5349976198870973 0.844853565249707 0  0.5555702330196023 0.8314696123025452 0  0.5758081914178453 0.8175848131515837 0  0.5956993044924335 0.8032075314806448 0  0.6152315905806268 0.7883464276266062 0  0.6343932841636455 0.773010453362737 0  0.6531728429537768 0.7572088465064845 0  0.6715589548470183 0.7409511253549591 0  0.6895405447370669 0.7242470829514669 0  0.7071067811865476 0.7071067811865475 0  0.724247082951467 0.6895405447370668 0  0.7409511253549591 0.6715589548470183 0  0.7572088465064846 0.6531728429537768 0  0.773010453362737 0.6343932841636455 0  0.7883464276266063 0.6152315905806268 0  0.8032075314806449 0.5956993044924334 0  0.8175848131515837 0.5758081914178453 0  0.8314696123025452 0.5555702330196022 0  0.8448535652497071 0.5349976198870972 0  0.8577286100002721 0.5141027441932217 0  0.8700869911087115 0.492898192229784 0  0.881921264348355 0.4713967368259976 0  0.8932243011955153 0.4496113296546065 0  0.9039892931234433 0.4275550934302821 0  0.9142097557035307 0.4052413140049899 0  0.9238795325112867 0.3826834323650898 0  0.932992798834739 0.3598950365349881 0  0.9415440651830208 0.3368898533922201 0  0.9495281805930367 0.3136817403988915 0  0.9569403357322088 0.2902846772544623 0  0.9637760657954398 0.2667127574748984 0  0.970031253194544 0.2429801799032639 0  0.9757021300385286 0.2191012401568698 0  0.9807852804032304 0.1950903220161282 0  0.9852776423889412 0.1709618887603012 0  0.989176509964781 0.1467304744553617 0  0.99247953459871 0.1224106751992162 0  0.9951847266721969 0.0980171403295606 0  0.9972904566786902 0.07356456359966743 0  0.9987954562051724 0.04906767432741801 0  0.9996988186962042 0.02454122852291229 0  1 0 0  20 0 0  20 2.5 0  0 2.5 0  -10 2.5 0  10 2.5 0  -10.5 0 0  -5 2.5 0  10.5 0 0  5 2.5 0  -5.75 0 0  5.75 0 0  -15.25 0 0  -15 2.5 0  15.25 0 0  15 2.5 0  -17.625 0 0  -17.5 2.5 0  17.5 2.5 0  17.625 0 0  12.5 2.5 0  12.875 0 0  -12.5 2.5 0  -12.875 0 0  -2.5 2.5 0  2.5 2.5 0  -8.125 0 0  -7.5 2.5 0  8.125 0 0  7.5 2.5 0  -3.375 0 0  3.375 0 0  -18.75 2.5 0  20 1.25 0  16.4375 1.19375 0  -16.25 2.5 0  13.75 2.5 0  -14.0625 0 0  -11.6875 0 0  11.6875 0 0  8.75 2.5 0  -8.75 2.5 0  6.9375 0 0  6.25 2.5 0  -6.25 2.5 0  -9.3125 0 0  -6.9375 0 0  9.3125 0 0  11.25 2.5 0  -11.25 2.5 0  3.75 2.5 0  4.5625 0 0  -4.5625 0 0  -3.75 2.5 0  -13.75 2.5 0  14.0625 0 0  -16.4375 0 0  -20 1.25 0  -18.8125 0 0  18.75 2.5 0  -18.21875 1.2359375 0  18.125 1.278125 0  -15.84375 1.2125 0  -14.375 1.30859375 0  14.65625 1.203125 0  2.1875 0 0  -2.1875 0 0  13.125 1.315625 0  3.125 1.315625 0  -3.125 1.315625 0  -12.28125 1.1890625 0  -5.15625 1.184375 0  11.09375 1.184375 0  5.625 1.325 0  -10.97262068800044 1.220713793599868 0  9.375 1.32734375 0  -6.875 1.32734375 0  -9.67626828410207 1.24449497187193 0  8.061334925608099 1.312208731402025 0  -8.188665074391901 1.312208731402025 0  -1.25 2.5 0  1.25 2.5 0  4.37465139623265 1.41327350462657 0  16.25 2.5 0  6.84375467392576 1.430449641528851 0  -1.846573640185365 1.334702047669377 0  1.846573640185365 1.334702047669377 0  -17.02955351149946 1.396129584721571 0  16.4375 0 0  18.8125 0 0  -13.31314667860176 1.511193493282891 0  -4.122005747945582 0.961844908681634 0  12.12799425205442 0.961844908681634 0  15.54930641305724 1.660405980876393 0  19.0578783583929 0.9559530595267438 0  8.71875 0.6864560603786576 0  -7.53125 0.6864560603786576 0  -0.6257799091428727 1.819008129832856 0  0.6257799091428734 1.819008129832855 0  6.291331569065717 0.7194652423646902 0  -19.11204717950418 0.9044926794710327 0  -4.488713231834613 1.772186102355655 0  11.76128676816539 1.772186102355655 0  -19.28185607205105 1.781856072051052 0  19.30868080343342 1.808680803433421 0  9.90625 0.6371857066656857 0  -6.34375 0.6371857066656857 0  3.796921710049233 0.7617406159238448 0  7.392020585015773 0.7480839107774819 0  -8.910372062800235 0.7929553447587234 0  10.2506781820361 1.451853913138859 0  -5.999321817963904 1.451853913138859 0  4.957643119381741 0.7716423099297361 0  17.29984375 0.8640625 0  15.41193625859067 0.8279888354083842 0  -13.72251704931534 0.7728002662082776 0  16.875 2.5 0  17.12178336313261 1.690954734835967 0  -11.64001625260176 1.74572103154608 0  2.477726735235857 0.7850262278604345 0  13.46875 0 0  13.765625 0.7802887470308788 0  -2.78125 0 0  -2.477726735235857 0.7850262278604346 0  -10.33383379274331 1.744431431923121 0  13.91957519050334 1.653419259628842 0  -15.08147780274903 0.8341506893754731 0  -15.14066649024666 1.671962869821843 0  -8.950686484882164 1.678622661163363 0  -17.55392917606836 0.794731598412167 0  -16.80247533599675 0.6688259240674158 0  -12.94289066923278 0.7766744225472476 0  -9.90625 0 0  -10.31601468672093 0.7730817089126454 0  -18.21875 0 0  -12.28125 0 0  -17.68515668569534 1.768907656575843 0  18.21875 0 0  10.85059123027421 1.880344717307101 0  -5.399408769725794 1.880344717307101 0  -3.738137326223278 1.749164834446819 0  -3.125 2.5 0  12.46235897590077 1.601301060091387 0  -11.09375 0 0  -11.61661448001209 0.7781698802173554 0  -15.625 2.5 0  -1.764022608759088 0.6027229563180789 0  1.59375 0 0  -8.125 2.5 0  8.125 2.5 0  8.713468311289519 1.727645658498745 0  9.375 2.5 0  -7.536531688710481 1.727645658498745 0  -6.875 2.5 0  14.375 2.5 0  17.78381794101733 1.874391370085592 0  18.59891476281433 1.80649740393129 0  -18.58835555265984 1.824268641341969 0  1.806126122135773 0.6510673837470153 0  -16.875 2.5 0  -16.36681393636619 1.755298393865037 0  -16.13072438662071 0.6014017614895231 0  -13.92460230791385 1.83195710210235 0  -14.40198779087891 0.6105385965811564 0  20 0.625 0  19.40625 0 0  14.6875 1.888836596385542 0  14.65625 0 0  12.78248197181444 0.6991460920542635 0  -3.467518028185561 0.6991460920542635 0  13.125 2.5 0  2.491957142932539 1.738660596534321 0  3.125 2.5 0  1.875 2.5 0  3.718973573227002 1.75927763286174 0  -2.491957142932539 1.738660596534321 0  -1.875 2.5 0  -9.375 2.5 0  6.2001972846108 1.772767401802766 0  5.625 2.5 0  5.027483518098582 1.760895488350309 0  5.625981449127788 0.6566963631252629 0  -12.30101114679273 1.859484693920165 0  9.742489932362783 1.884363450023167 0  -6.507510067637216 1.884363450023166 0  1.13492303295015 1.283502262067074
[...]
<PointData  Scalars="f_21639191"> 
<DataArray  type="Float64"  Name="f_21639191"  format="ascii">1.0000000017139599e+00  1.0000000007515015e+00  1.0000086848637155e+00  1.0000090678509661e+00  1.0000120397029879e+00  1.0000209527716000e+00  1.0000258938310407e+00  1.0000288582946479e+00  1.0000363542487418e+00  1.0000462244089092e+00  1.0000427826004945e+00  1.0000604181372594e+00  1.0000712282249047e+00  1.0000811518668200e+00  1.0000906261821638e+00  1.0000973092963161e+00  1.0001094779748196e+00  1.0001152531346424e+00  1.0001312145835271e+00  1.0001424689213116e+00  1.0001516513242179e+00  1.0001625244923584e+00  1.0001749798920774e+00  1.0001814193795000e+00  1.0001934031705626e+00  1.0002046983654220e+00  1.0002124369976257e+00  1.0002189811210320e+00  1.0002252982334656e+00  1.0002311644114172e+00  1.0002537262181566e+00  1.0002594579482984e+00  1.0002612189232705e+00  1.0002726487367630e+00  1.0002645236733396e+00  1.0002754186391984e+00  1.0002730339697374e+00  1.0002843731514528e+00  1.0002931995305964e+00  1.0002871633345782e+00  1.0002877864779902e+00  1.0002833695380238e+00  1.0002810908310262e+00  1.0002755514452664e+00  1.0002612131861157e+00  1.0002443308032518e+00  1.0002188170888133e+00  1.0002584844524822e+00  1.0002467357775449e+00  1.0002475018347812e+00  1.0002294762402488e+00  1.0002182096265178e+00  1.0002115835879939e+00  1.0001999055104243e+00  1.0001844302106802e+00  1.0001599260837546e+00  1.0001552727790597e+00  1.0001339933333870e+00  1.0001239630743837e+00  1.0001126935111568e+00  1.0000964746530292e+00  1.0000803128537206e+00  1.0000627968643889e+00  1.0000449062393357e+00  1.0000322998413458e+00  1.0000169178432101e+00  1.0000005555125075e+00  9.9998419378359060e-01  9.9996780993015133e-01  9.9995133431842453e-01  9.9993355474063328e-01  9.9992152754363173e-01  9.9990659020306560e-01  9.9988823858485687e-01  9.9987194816408542e-01  9.9985989616377369e-01  9.9984268651176267e-01  9.9982567435661329e-01  9.9983880308659834e-01  9.9981669926160643e-01  9.9978888366973639e-01  9.9977807359834459e-01  9.9976357840855301e-01  9.9976338805212395e-01  9.9976764431280918e-01  9.9976362145796327e-01  9.9973750799709815e-01  9.9973166516575318e-01  9.9972682499829890e-01  9.9972422585933307e-01  9.9971925974797604e-01  9.9972061507783450e-01  9.9971395476109859e-01  9.9972345698308740e-01  9.9972498091453932e-01  9.9971720045648660e-01  9.9972318130304572e-01  9.9972328746203998e-01  9.9973992485810870e-01  9.9974023346769281e-01  9.9975573791109495e-01  9.9975800969929352e-01  9.9975030226321959e-01  9.9975731658338762e-01  9.9977066575495277e-01  9.9977321791903295e-01  9.9979064192869871e-01  9.9980645914063870e-01  9.9980971909774796e-01  9.9981729576486211e-01  9.9983392840231344e-01  9.9983572173933233e-01  9.9985555073833809e-01  9.9985858542556194e-01  9.9987604477311165e-01  9.9988260307592791e-01  9.9988910377517537e-01  9.9989688040534241e-01  9.9990927809945340e-01  9.9991965429825125e-01  9.9992783709546051e-01  9.9993694413052192e-01  9.9994522645938433e-01  9.9995617029063089e-01  9.9996518344497531e-01  9.9996976240464930e-01  9.9997534794377918e-01  9.9997948886234156e-01  9.9998922719466155e-01  9.9999276843898599e-01  9.9999446630826760e-01  9.9999999984094190e-01  1.0000000001564102e+00  1.0000002573205791e+00  9.9999999984419874e-01  1.0000000000493861e+00  1.0000000000194715e+00  9.9999981992765463e-01  1.0000000002494305e+00  1.0000001736483373e+00  1.0000002414516871e+00  9.9999976140133795e-01  9.9999999964540554e-01  1.0000000001629457e+00  1.0000000001827134e+00  9.9999999978282805e-01  1.0000000005757572e+00  9.9999999988361066e-01  9.9999999971681597e-01  9.9999999913427318e-01  9.9999999993371980e-01  9.9999999989645771e-01  9.9999999997875599e-01  1.0000000004860845e+00  9.9999167136953138e-01  1.0000051153978993e+00  1.0000000087649836e+00  9.9999999735100609e-01  9.9999999269506190e-01  1.0000000046406352e+00  1.0000075336452425e+00  9.9999215707790512e-01  1.0000000002605101e+00  1.0000000004096445e+00  9.9999999981087151e-01  1.0000000000742642e+00  1.0000000000182740e+00  9.9999999937461981e-01  9.9999999984197740e-01  1.0000000002272387e+00  1.0000000009945786e+00  9.9999999941093243e-01  9.9999995656875951e-01  1.0000000274725636e+00  9.9999998157030734e-01  1.0000000005819378e+00  1.0000000454170677e+00  9.9999999851853327e-01  1.0000000004253604e+00  1.0000000000948657e+00  1.0000013356513906e+00  9.9999866617015054e-01  1.0000013681499957e+00  9.9999875124284399e-01  9.9999999991638477e-01  9.9999999961901109e-01  1.0000000000166507e+00  1.0000000004018339e+00  1.0000000004220058e+00  1.0000000003389766e+00  9.9999999983533228e-01  9.9999999976215714e-01  9.9999999982132459e-01  1.0000000004554876e+00  1.0000000001360763e+00  9.9995371382163145e-01  1.0000458624204500e+00  9.9999999976324827e-01  1.0000035431115293e+00  9.9999642087362384e-01  9.9999999993658828e-01  9.9999988015394847e-01  9.9999999969999409e-01  1.0000000869188646e+00  9.9999999987861476e-01  1.0000000001342992e+00  9.9999998810159296e-01  9.9999999953372487e-01  1.0000000023493807e+00  9.9999999807049011e-01  9.9998674166101920e-01  1.0000133056878735e+00  1.0000007266989548e+00  1.0000000001267237e+00  1.0000000218316811e+00  9.9997170558358728e-01  1.0000295230527148e+00  1.0000000002219587e+00  1.0000000007455694e+00  1.0000000000382783e+00  1.0000000001417388e+00  1.0000003718535713e+00  1.0000000004474536e+00  1.0000000004045992e+00  1.0000000002978933e+00  9.9999999881107260e-01  1.0000000092328898e+00  9.9993478455229545e-01  1.0000646583152160e+00  9.9999994622485644e-01  1.0000000002108216e+00  9.9999883011278268e-01  1.0000000000631406e+00  9.9999999976912268e-01  9.9999999975448373e-01  9.9999999963989661e-01  1.0000000590349498e+00  9.9999818062251766e-01  9.9999998926692768e-01  1.0000000015552692e+00  1.0000000004165897e+00  9.9999992867924226e-01  9.9999968138047590e-01  1.0000000002378975e+00  9.9999999944614493e-01  1.0000000001272580e+00  1.0000000002912517e+00  1.0000000000587799e+00  1.0000000000555462e+00  9.9998971257851532e-01  1.0000000001363254e+00  1.0000000001156013e+00  1.0000190130652435e+00  1.0000111028169467e+00  9.9999999963959563e-01  9.9999999992632926e-01  9.9999999988990329e-01  9.9999999998176758e-01  9.9999999829228081e-01  9.9999999953717555e-01  9.9999999968551334e-01  9.9999999946104290e-01  1.0000000006957894e+00  1.0000000003910832e+00  9.9999999848162346e-01  9.9999999952244378e-01  1.0000000001813791e+00  1.0000000006199647e+00  1.0000000000832712e+00  9.9999967350632812e-01  9.9999664090769902e-01  9.9999729026647433e-01  1.0000000000274103e+00  1.0000000003564171e+00  1.0000000000709788e+00  1.0000000000692619e+00  1.0000281447483299e+00  9.9988962709257878e-01  9.9999999813402773e-01  1.0000000015633395e+00  1.0000000017597441e+00  1.0000000002057403e+00  9.9999998707745841e-01  9.9999999382189475e-01  9.9999999999912292e-01  1.0000000000864788e+00  1.0000000001105187e+00  9.9999999963963881e-01  9.9998084201308357e-01  1.0000000002022740e+00  1.0000000000219122e+00  1.0000000003205118e+00  1.0000000001010081e+00  9.9999999991938904e-01  1.0000000000505405e+00  9.9999999894860969e-01  9.9999999996518751e-01  9.9999999968575259e-01  1.0000000001415090e+00  1.0000033601839384e+00  9.9999999989650179e-01  1.0000182350771614e+00  1.0000027401640939e+00  1.0000077739516557e+00  1.0000032680600486e+00  9.9998151774601052e-01  9.9998865834162298e-01  9.9999999972140308e-01  1.0000000887293392e+00  1.0000000738588928e+00  1.0000005199728195e+00  9.9999983930932634e-01  1.0000000001191558e+00  1.0000000004470482e+00  9.9999993661262510e-01  1.0000590340863167e+00  9.9993791474950200e-01  9.9999999988654453e-01  1.0000006526006113e+00  9.9999999950555440e-01  1.0000001478186429e+00  9.9999999974033638e-01  9.9999265114742986e-01  1.0000000001940894e+00  1.0000000001049187e+00  1.0000000035088512e+00  9.9999999489694158e-01  1.0000000146592252e+00  9.9995250529456459e-01  1.0000487544447998e+00  9.9999999970182996e-01  9.9999999977891951e-01  1.0000034620555822e+00  9.9999999947923857e-01  1.0000000007697554e+00  1.0000000002441658e+00  9.9999999986069554e-01  1.0000000001611236e+00  1.0000000000515166e+00  9.9999999987606047e-01  1.0000000008351924e+00  9.9999999980313248e-01  1.0000000085445613e+00  1.0000004109695781e+00  1.0000002107563646e+00  1.0000000002519194e+00  1.0000000001247131e+00  9.9999999999098954e-01  9.9999999939984963e-01  9.9999999998457767e-01  9.9999953394865948e-01  1.0000127284594373e+00  9.9998896989473829e-01  9.9999999985184196e-01  1.0000000003668716e+00  9.9999999991430599e-01  9.9999999971473297e-01  9.9999999992638011e-01  9.9999995228818184e-01  1.0000000001005056e+00  1.0000000000210250e+00  9.9999999994341771e-01  1.0000005742123506e+00  1.0000000003663321e+00  9.9999999995003352e-01  1.0000000000358551e+00  9.9999999548058860e-01  1.0000000055487257e+00  1.0000000000725158e+00  1.0000000295729310e+00  9.9999999939362394e-01  1.0001097552598412e+00  9.9999999998930289e-01  1.0000000000269098e+00  9.9999937218022505e-01  1.0000000027311551e+00  9.9999998078369201e-01  9.9999658662414936e-01  1.0000000993947269e+00  9.9999999928619576e-01  9.9999989417830848e-01  1.0000000183086157e+00  9.9999999681377616e-01  1.0000000009787648e+00  9.9999999941153384e-01  9.9998028946023088e-01  9.9999999989371691e-01  1.0000088921578503e+00  1.0000000001918175e+00  9.9999183423147697e-01  1.0000002486456672e+00  9.9999999969891307e-01  9.9999999966826103e-01  9.9999885770289632e-01  1.0000000002013323e+00  9.9999999983204646e-01  9.9999996728097595e-01  9.9999999997983313e-01  1.0000012081730048e+00  1.0000000002842089e+00  1.0000000001048381e+00  1.0000000001902034e+00  1.0000000001232550e+00  9.9999986501081750e-01  1.0000000004585319e+00  1.0000000000872122e+00  1.0000000303180301e+00  9.9999999993226052e-01  9.9999985001135883e-01  1.0000000001542932e+00  9.9999915500834358e-01  1.0000000218412044e+00  9.9999999997086075e-01  9.9999999709755372e-01  1.0000000001818325e+00  9.9999997198648893e-01  1.0000000010694774e+00  9.9999999997946465e-01  9.9999999961718844e-01  1.0000000053476297e+00  1.0000000002913396e+00  1.0000017715245166e+00  9.9999999967107067e-01  1.0000000000201203e+00  9.9999999986414800e-01  1.0000010761827580e+00  1.0000107694163676e+00  1.0000001496665245e+00  9.9999999953157626e-01  1.0000000004832914e+00  9.9999999991665212e-01  9.9999822948055272e-01  9.9999999977188614e-01  9.9998002620977433e-01  1.0000306584564040e+00  9.9999999994734334e-01  9.9999999332852307e-01  1.0000000001545837e+00  1.0000000000306724e+00  1.0000000000043825e+00  1.0000000000822717e+00  9.9999999984442667e-01  1.0000000001762739e+00  1.0000000003695788e+00  9.9999736009335172e-01  9.9999999979454535e-01  1.0000074529844105e+00  9.9998557619071993e-01  1.0000000000531064e+00  1.0000000006976124e+00  1.0000000005286624e+00  1.0000000001505747e+00  1.0000000003590790e+00  9.9999664900314389e-01  9.9993857182124435e-01  1.0000615626082228e+00  9.9996517387524830e-01  1.0000332666939526e+00  9.9999999994270683e-01  9.9999999978816279e-01  1.0000000001120799e+00  1.0000017970032797e+00  9.9999999969490760e-01  9.9999999877622314e-01  9.9999999997334699e-01  9.9999999989208865e-01  1.0000000004169651e+00  1.0000000003217675e+00  1.0000004148626658e+00  1.0000000003652982e+00  9.9999999988750932e-01  9.9999942716323054e-01  1.0000000001469831e+00  1.0000000001162290e+00  9.9999999623952651e-01  1.0000000108325480e+00  1.0000000000805924e+00  1.0000000459557108e+00  9.9999999973761622e-01  9.9999999984023136e-01  9.9999986526831774e-01  9.9999997916187466e-01  1.0000000002381020e+00  9.9999999960048735e-01  9.9999999980339960e-01  9.9999146391994587e-01  9.9999999976065046e-01  9.9999948884599166e-01  1.0000000002160097e+00  9.9999908624708744e-01  1.0000000005251872e+00  1.0000000016853778e+00  1.0000000004011451e+00  9.9999999996746325e-01  9.9999999996088640e-01  9.9999999963746944e-01  9.9997127923411799e-01  1.0000253179449807e+00  1.0000000000463558e+00  9.9999999998570277e-01  9.9999999974923792e-01  1.0000000120403638e+00  9.9999997771168025e-01  9.9999999737382961e-01  1.0000000005065548e+00  9.9999999999893563e-01  9.9999999970215192e-01  9.9999999958623387e-01  1.0000000032789140e+00  1.0000000326085787e+00  1.0000000022142712e+00  1.0000010026638977e+00  1.0000037765067260e+00  9.9999997402793261e-01  9.9999999697738651e-01  1.0000000005095626e+00  9.9999999993516131e-01  9.9999999971643327e-01  1.0000001634043783e+00  9.9999992833366391e-01  9.9999516943747702e-01  1.0000000001646518e+00  9.9999984586159540e-01  9.9999917532608762e-01  9.9999999988396571e-01  1.0000591464593669e+00  1.0000000004191070e+00  1.0000000000216140e+00  1.0000047564272554e+00  9.9997049233837587e-01  1.0000000004921903e+00  1.0000000003483978e+00  9.9999999976353904e-01  1.0000000010878360e+00  1.0000000001202098e+00  1.0000000000151756e+00  1.0000000002736209e+00  9.9999999967141828e-01  1.0000000000229661e+00  1.0000011890359533e+00  9.9999999780656179e-01  9.9999999828709774e-01  9.9999999962656427e-01  1.0000457774106886e+00  9.9999999925488137e-01  1.0000000620484784e+00  1.0000000001946630e+00  9.9999999977289167e-01  1.0000000000168965e+00  1.0000000000235314e+00  1.0000000001315525e+00  9.9999998815427815e-01  1.0000257166211157e+00  9.9997173684231389e-01  1.0000000216146121e+00  9.9999999805680251e-01  1.0000000001133669e+00  1.0000000002866847e+00  9.9999999978756660e-01  1.0000000001231872e+00  1.0000022648171589e+00  1.0000021572751949e+00  1.0000002989948402e+00  9.9999999997406264e-01  9.9993899582073331e-01  9.9999649785727573e-01  1.0000120955698886e+00  9.9999999983341603e-01  9.9999999953028473e-01  1.0000000146311085e+00  1.0000396666742877e+00  9.9999999946311746e-01  1.0000000018471129e+00  9.9999998431139958e-01  9.9999999994256528e-01  9.9999999992978306e-01  1.0000000004025205e+00  1.0000000004046581e+00  1.0000000001780041e+00  9.9999999994895361e-01  9.9999999960266484e-01  1.0000000002077538e+00  1.0000000000935665e+00  9.9993390829651774e-01  9.9999999980307763e-01  9.9999956623839703e-01  1.0000000001811640e+00  9.9999703025114817e-01  9.9999999365453385e-01  1.0000000001491425e+00  9.9999999984928567e-01  1.0000000002974232e+00  1.0000009477396090e+00  9.9999947706368886e-01  1.0000000001310798e+00  1.0000000089283279e+00  9.9999999994806177e-01  9.9999999995492383e-01  9.9999999985896471e-01  9.9999999983971388e-01  1.0000000001065672e+00  1.0000037370407020e+00  9.9999999995201916e-01  1.0000017634110152e+00  9.9999999687441998e-01  1.0000000030206009e+00  1.0000375212259969e+00  1.0000603366705725e+00  1.0000022926428889e+00  9.9999330100916883e-01  1.0000186824140804e+00  9.9999994330179076e-01  9.9999999983207111e-01  1.0000000002669998e+00  1.0000000514577738e+00  1.0000000004469873e+00  9.9999999993874022e-01  9.9999999978570941e-01  9.9999999974654608e-01  9.9999999989566979e-01  9.9999999994708644e-01  9.9999999974273068e-01  1.0000000847322370e+00  9.9999998512768551e-01  1.0000000030916179e+00  9.9999999998057676e-01  9.9999980197384752e-01  9.9995988914258127e-01  9.9993944983892546e-01  9.9999999196412859e-01  1.0000000006443228e+00  1.0000000001292479e+00  9.9999999917893112e-01  9.9999999991818167e-01  9.9999999810430340e-01  1.0000000025298355e+00  1.0000099124904775e+00  1.0000003742477717e+00  9.9999993124065556e-01  9.9999992548224992e-01  9.9999999987300747e-01  9.9995562888279288e-01  1.0000000001554696e+00  1.0000000000699329e+00  9.9999999973776277e-01  9.9999999954877405e-01  1.0000768364109403e+00  9.9999999986937194e-01  9.9999640030611781e-01  1.0000000057174523e+00  1.0000005863989756e+00  9.9999770169879854e-01  9.9999999981729115e-01  1.0000003768619414e+00  9.9999999869875811e-01  9.9999999974010434e-01  1.0000029659474732e+00  1.0000002913701371e+00  9.9999999984070587e-01  9.9999999986552757e-01  1.0000000005572447e+00  9.9999992856453246e-01  1.0000000000901619e+00  9.9999981929458481e-01  9.9999999984357213e-01  1.0000000002185974e+00  9.9999914998149220e-01  9.9998885762248069e-01  1.0000000001032703e+00  1.0000000001009577e+00  9.9992332873784462e-01  1.0000000151227908e+00  1.0000000076985163e+00  1.0000000823299466e+00  9.9999803173772106e-01  9.9998282253070070e-01  1.0000386023334529e+00  9.9998487908985745e-01  1.0000121252238257e+00  9.9999999988126853e-01  1.0000000001202864e+00  1.0000000001423437e+00  9.9999999993440425e-01  1.0000003073366619e+00  9.9999998357828224e-01  9.9999996967603333e-01  9.9999999997388722e-01  1.0000000008575760e+00  1.0000000006960867e+00  9.9999999988861488e-01  9.9999999979496701e-01  9.9999999994337840e-01  1.0000000002489278e+00  9.9999776904055304e-01  1.0000000001089584e+00  9.9999999973846398e-01  9.9999999979392806e-01  1.0000000000395524e+00  9.9999999975081444e-01  1.0000000002620635e+00  1.0000081531185205e+00  1.0000016577592978e+00  9.9999999941972995e-01  1.0000000004161533e+00  1.0000000146721735e+00  1.0000000001848275e+00  9.9999999942064599e-01  9.9999999984204258e-01  9.9999999984767696e-01  1.0000001482138603e+00  9.9999999943982687e-01  9.9999999959400010e-01  9.9999999958188424e-01  1.0000000000436255e+00  9.9999999993880251e-01  9.9999999964045483e-01  1.0000000008158296e+00  1.0000000002495197e+00  9.9999999987924126e-01  1.0000000002913951e+00  9.9999999964854225e-01  1.0000000001896416e+00  1.0000000002874563e+00  9.9999999979949583e-01  9.9999999981476151e-01  1.0000762115228459e+00  9.9993478167315131e-01  1.0000000003243024e+00  1.0000000001945213e+00  1.0000000001814324e+00  1.0000000000114917e+00  1.0000000007988290e+00  9.9999999974664067e-01  1.0000474087815081e+00  1.0000178755711639e+00  9.9995196376571416e-01  1.0000000000002167e+00  1.0000000000443563e+00  1.0000001790138999e+00  1.0000000000152172e+00  1.0000007300247733e+00  9.9999999978436682e-01  1.0000012368943774e+00  1.0000000000216533e+00  1.0000000003081910e+00  9.9999999988778576e-01  1.0000000001049723e+00  9.9999999934431705e-01  9.9999590427809881e-01  9.9999116434863555e-01  9.9999999950935492e-01  9.9999999974967491e-01  9.9999999928863392e-01  1.0000008542442360e+00  9.9999976093519716e-01  9.9999999942165418e-01  1.0000000004783653e+00  9.9999993486356464e-01  9.9999996121856871e-01  1.0000000002145430e+00  9.9999995107566886e-01  1.0000000005936018e+00  1.0000000000341067e+00  9.9999999990996502e-01  1.0000000002888043e+00  9.9999999959144514e-01  9.9999999993347233e-01  9.9999999931616856e-01  1.0000000000079050e+00  1.0000000001895832e+00  9.9999988744139445e-01  9.9999999981340215e-01  9.9998324972482244e-01  9.9999980247555997e-01  9.9999999998824873e-01  9.9999999993246158e-01  1.0000000063241101e+00  9.9999999232771630e-01  1.0000000002142297e+00  9.9999999971488351e-01  1.0000000002529466e+00  9.9996145512563639e-01  1.0000449938671105e+00  9.9995521507312712e-01  1.0000356793351917e+00  9.9999999940021078e-01  9.9999999961854191e-01  9.9999999931339556e-01  1.0000000001978335e+00  1.0000000008123771e+00  1.0000000012985721e+00  9.9999847128998254e-01  1.0000000002997254e+00  1.0000000002802669e+00  1.0000000003645462e+00  9.9999963173570050e-01  1.0000000003237215e+00  9.9999999970847853e-01  1.0000000001277769e+00  1.0000000000776692e+00  1.0000173485597745e+00  1.0000000004169154e+00  1.0000687588527990e+00  9.9995391699092984e-01  1.0000000003051746e+00  9.9999999948169926e-01  1.0000001040227307e+00  9.9999999985746268e-01  1.0000007175000116e+00  9.9999999904360259e-01  1.0000126132908818e+00  1.0000000002171117e+00  9.9999999686827723e-01  9.9999999993813171e-01  1.0000000003210801e+00  9.9999999998815625e-01  1.0000390057138817e+00  9.9999692247292216e-01  9.9996223899442760e-01  9.9998430319174758e-01  1.0000000001124743e+00  9.9999999986446364e-01  1.0000000002366221e+00  1.0000755804471413e+00  9.9999999986777932e-01  1.0000271332048916e+00  1.0000000003785057e+00  9.9999999988602806e-01  1.0000000001680618e+00  9.99999