<?xml version="1.0"?>
<VTKFile type="UnstructuredGrid"  version="0.1"  >
<UnstructuredGrid>
<Piece  NumberOfPoints="2912" NumberOfCells="5086">
<Points>
<DataArray  type="Float64"  NumberOfComponents="3"  format="ascii">-20 2.5 0  -20 0 0  -1 0 0  -0.9996988186962042 0.02454122852291233 0  -0.9987954562051724 0.04906767432741797 0  -0.9972904566786902 0.07356456359966773 0  -0.9951847266721968 0.09801714032956083 0  -0.99247953459871 0.1224106751992163 0  -0.989176509964781 0.1467304744553618 0  -0.9852776423889412 0.1709618887603012 0  -0.9807852804032304 0.1950903220161286 0  -0.9757021300385285 0.21910124015687 0  -0.970031253194544 0.2429801799032641 0  -0.9637760657954398 0.2667127574748985 0  -0.9569403357322088 0.2902846772544624 0  -0.9495281805930367 0.3136817403988914 0  -0.9415440651830207 0.3368898533922203 0  -0.9329927988347388 0.3598950365349883 0  -0.9238795325112867 0.3826834323650899 0  -0.9142097557035307 0.4052413140049899 0  -0.9039892931234433 0.427555093430282 0  -0.8932243011955152 0.4496113296546069 0  -0.8819212643483549 0.4713967368259979 0  -0.8700869911087113 0.4928981922297841 0  -0.857728610000272 0.5141027441932218 0  -0.8448535652497071 0.5349976198870972 0  -0.8314696123025453 0.5555702330196022 0  -0.8175848131515836 0.5758081914178454 0  -0.8032075314806448 0.5956993044924335 0  -0.7883464276266062 0.6152315905806269 0  -0.773010453362737 0.6343932841636455 0  -0.7572088465064846 0.6531728429537766 0  -0.7409511253549589 0.6715589548470186 0  -0.7242470829514668 0.6895405447370671 0  -0.7071067811865475 0.7071067811865476 0  -0.6895405447370669 0.7242470829514669 0  -0.6715589548470184 0.740951125354959 0  -0.6531728429537765 0.7572088465064847 0  -0.6343932841636454 0.7730104533627371 0  -0.6152315905806267 0.7883464276266063 0  -0.5956993044924334 0.8032075314806449 0  -0.5758081914178453 0.8175848131515837 0  -0.555570233019602 0.8314696123025455 0  -0.534997619887097 0.8448535652497072 0  -0.5141027441932217 0.8577286100002721 0  -0.492898192229784 0.8700869911087115 0  -0.4713967368259977 0.881921264348355 0  -0.4496113296546067 0.8932243011955152 0  -0.4275550934302819 0.9039892931234434 0  -0.4052413140049897 0.9142097557035307 0  -0.3826834323650897 0.9238795325112867 0  -0.3598950365349882 0.9329927988347388 0  -0.3368898533922199 0.9415440651830208 0  -0.3136817403988914 0.9495281805930367 0  -0.2902846772544622 0.9569403357322089 0  -0.2667127574748983 0.9637760657954398 0  -0.2429801799032639 0.970031253194544 0  -0.2191012401568697 0.9757021300385286 0  -0.1950903220161282 0.9807852804032304 0  -0.1709618887603012 0.9852776423889412 0  -0.1467304744553616 0.989176509964781 0  -0.1224106751992162 0.99247953459871 0  -0.09801714032956065 0.9951847266721969 0  -0.07356456359966733 0.9972904566786902 0  -0.04906767432741801 0.9987954562051724 0  -0.02454122852291214 0.9996988186962042 0  6.123233995736766e-17 1 0  0.02454122852291226 0.9996988186962042 0  0.04906767432741813 0.9987954562051724 0  0.07356456359966745 0.9972904566786902 0  0.09801714032956077 0.9951847266721968 0  0.1224106751992163 0.99247953459871 0  0.1467304744553617 0.989176509964781 0  0.1709618887603014 0.9852776423889412 0  0.1950903220161283 0.9807852804032304 0  0.2191012401568698 0.9757021300385286 0  0.242980179903264 0.970031253194544 0  0.2667127574748984 0.9637760657954398 0  0.2902846772544623 0.9569403357322089 0  0.3136817403988916 0.9495281805930367 0  0.3368898533922201 0.9415440651830208 0  0.3598950365349883 0.9329927988347388 0  0.3826834323650898 0.9238795325112867 0  0.4052413140049899 0.9142097557035307 0  0.4275550934302822 0.9039892931234433 0  0.4496113296546066 0.8932243011955153 0  0.4713967368259978 0.8819212643483549 0  0.4928981922297841 0.8700869911087113 0  0.5141027441932217 0.8577286100002721 0  0.5349976198870973 0.844853565249707 0  0.5555702330196023 0.8314696123025452 0  0.5758081914178453 0.8175848131515837 0  0.5956993044924335 0.8032075314806448 0  0.6152315905806268 0.7883464276266062 0  0.6343932841636455 0.773010453362737 0  0.6531728429537768 0.7572088465064845 0  0.6715589548470183 0.7409511253549591 0  0.6895405447370669 0.7242470829514669 0  0.7071067811865476 0.7071067811865475 0  0.724247082951467 0.6895405447370668 0  0.7409511253549591 0.6715589548470183 0  0.7572088465064846 0.6531728429537768 0  0.773010453362737 0.6343932841636455 0  0.7883464276266063 0.6152315905806268 0  0.8032075314806449 0.5956993044924334 0  0.8175848131515837 0.5758081914178453 0  0.8314696123025452 0.5555702330196022 0  0.8448535652497071 0.5349976198870972 0  0.8577286100002721 0.5141027441932217 0  0.8700869911087115 0.492898192229784 0  0.881921264348355 0.4713967368259976 0  0.8932243011955153 0.4496113296546065 0  0.9039892931234433 0.4275550934302821 0  0.9142097557035307 0.4052413140049899 0  0.9238795325112867 0.3826834323650898 0  0.932992798834739 0.3598950365349881 0  0.9415440651830208 0.3368898533922201 0  0.9495281805930367 0.3136817403988915 0  0.9569403357322088 0.2902846772544623 0  0.9637760657954398 0.2667127574748984 0  0.970031253194544 0.2429801799032639 0  0.9757021300385286 0.2191012401568698 0  0.9807852804032304 0.1950903220161282 0  0.9852776423889412 0.1709618887603012 0  0.989176509964781 0.1467304744553617 0  0.99247953459871 0.1224106751992162 0  0.9951847266721969 0.0980171403295606 0  0.9972904566786902 0.07356456359966743 0  0.9987954562051724 0.04906767432741801 0  0.9996988186962042 0.02454122852291229 0  1 0 0  20 0 0  20 2.5 0  0 2.5 0  -10 2.5 0  10 2.5 0  -10.5 0 0  -5 2.5 0  10.5 0 0  5 2.5 0  -5.75 0 0  5.75 0 0  -15.25 0 0  -15 2.5 0  15.25 0 0  15 2.5 0  -17.625 0 0  -17.5 2.5 0  17.5 2.5 0  17.625 0 0  12.5 2.5 0  12.875 0 0  -12.5 2.5 0  -12.875 0 0  -2.5 2.5 0  2.5 2.5 0  -8.125 0 0  -7.5 2.5 0  8.125 0 0  7.5 2.5 0  -3.375 0 0  3.375 0 0  -18.75 2.5 0  20 1.25 0  16.4375 1.19375 0  -16.25 2.5 0  13.75 2.5 0  -14.0625 0 0  -11.6875 0 0  11.6875 0 0  8.75 2.5 0  -8.75 2.5 0  6.9375 0 0  6.25 2.5 0  -6.25 2.5 0  -9.3125 0 0  -6.9375 0 0  9.3125 0 0  11.25 2.5 0  -11.25 2.5 0  3.75 2.5 0  4.5625 0 0  -4.5625 0 0  -3.75 2.5 0  -13.75 2.5 0  14.0625 0 0  -16.4375 0 0  -20 1.25 0  -18.8125 0 0  18.75 2.5 0  -18.21875 1.2359375 0  18.125 1.278125 0  -15.84375 1.2125 0  -14.375 1.30859375 0  14.65625 1.203125 0  2.1875 0 0  -2.1875 0 0  13.125 1.315625 0  3.125 1.315625 0  -3.125 1.315625 0  -12.28125 1.1890625 0  -5.15625 1.184375 0  11.09375 1.184375 0  5.625 1.325 0  -10.97262068800044 1.220713793599868 0  9.375 1.32734375 0  -6.875 1.32734375 0  -9.67626828410207 1.24449497187193 0  8.061334925608099 1.312208731402025 0  -8.188665074391901 1.312208731402025 0  -1.25 2.5 0  1.25 2.5 0  4.37465139623265 1.41327350462657 0  16.25 2.5 0  6.84375467392576 1.430449641528851 0  -1.846573640185365 1.334702047669377 0  1.846573640185365 1.334702047669377 0  -17.02955351149946 1.396129584721571 0  16.4375 0 0  18.8125 0 0  -13.31314667860176 1.511193493282891 0  -4.122005747945582 0.961844908681634 0  12.12799425205442 0.961844908681634 0  15.54930641305724 1.660405980876393 0  19.0578783583929 0.9559530595267438 0  8.71875 0.6864560603786576 0  -7.53125 0.6864560603786576 0  -0.6257799091428727 1.819008129832856 0  0.6257799091428734 1.819008129832855 0  6.291331569065717 0.7194652423646902 0  -19.11204717950418 0.9044926794710327 0  -4.488713231834613 1.772186102355655 0  11.76128676816539 1.772186102355655 0  -19.28185607205105 1.781856072051052 0  19.30868080343342 1.808680803433421 0  9.90625 0.6371857066656857 0  -6.34375 0.6371857066656857 0  3.796921710049233 0.7617406159238448 0  7.392020585015773 0.7480839107774819 0  -8.910372062800235 0.7929553447587234 0  10.2506781820361 1.451853913138859 0  -5.999321817963904 1.451853913138859 0  4.957643119381741 0.7716423099297361 0  17.29984375 0.8640625 0  15.41193625859067 0.8279888354083842 0  -13.72251704931534 0.7728002662082776 0  16.875 2.5 0  17.12178336313261 1.690954734835967 0  -11.64001625260176 1.74572103154608 0  2.477726735235857 0.7850262278604345 0  13.46875 0 0  13.765625 0.7802887470308788 0  -2.78125 0 0  -2.477726735235857 0.7850262278604346 0  -10.33383379274331 1.744431431923121 0  13.91957519050334 1.653419259628842 0  -15.08147780274903 0.8341506893754731 0  -15.14066649024666 1.671962869821843 0  -8.950686484882164 1.678622661163363 0  -17.55392917606836 0.794731598412167 0  -16.80247533599675 0.6688259240674158 0  -12.94289066923278 0.7766744225472476 0  -9.90625 0 0  -10.31601468672093 0.7730817089126454 0  -18.21875 0 0  -12.28125 0 0  -17.68515668569534 1.768907656575843 0  18.21875 0 0  10.85059123027421 1.880344717307101 0  -5.399408769725794 1.880344717307101 0  -3.738137326223278 1.749164834446819 0  -3.125 2.5 0  12.46235897590077 1.601301060091387 0  -11.09375 0 0  -11.61661448001209 0.7781698802173554 0  -15.625 2.5 0  -1.764022608759088 0.6027229563180789 0  1.59375 0 0  -8.125 2.5 0  8.125 2.5 0  8.713468311289519 1.727645658498745 0  9.375 2.5 0  -7.536531688710481 1.727645658498745 0  -6.875 2.5 0  14.375 2.5 0  17.78381794101733 1.874391370085592 0  18.59891476281433 1.80649740393129 0  -18.58835555265984 1.824268641341969 0  1.806126122135773 0.6510673837470153 0  -16.875 2.5 0  -16.36681393636619 1.755298393865037 0  -16.13072438662071 0.6014017614895231 0  -13.92460230791385 1.83195710210235 0  -14.40198779087891 0.6105385965811564 0  20 0.625 0  19.40625 0 0  14.6875 1.888836596385542 0  14.65625 0 0  12.78248197181444 0.6991460920542635 0  -3.467518028185561 0.6991460920542635 0  13.125 2.5 0  2.491957142932539 1.738660596534321 0  3.125 2.5 0  1.875 2.5 0  3.718973573227002 1.75927763286174 0  -2.491957142932539 1.738660596534321 0  -1.875 2.5 0  -9.375 2.5 0  6.2001972846108 1.772767401802766 0  5.625 2.5 0  5.027483518098582 1.760895488350309 0  5.625981449127788 0.6566963631252629 0  -12.30101114679273 1.859484693920165 0  9.742489932362783 1.884363450023167 0  -6.507510067637216 1.884363450023166 0  1.13492303295015 1.283502262067074
[...]
<PointData  Scalars="f_21639176"> 
<DataArray  type="Float64"  Name="f_21639176"  format="ascii">-2.2223538928377250e-05  -2.4841008576579961e-07  -1.9973083375159032e-06  -1.3474251273445058e-05  -2.4756300408305485e-05  -3.5604120755145907e-05  -4.6063855076927832e-05  -5.8205274457721330e-05  -6.6196213174549628e-05  -7.4408605399383927e-05  -7.5771337986326714e-05  -8.7748901782044912e-05  -8.9413246815609637e-05  -9.4456964767626172e-05  -1.0051605684243592e-04  -1.0313833625051439e-04  -1.0704377875960206e-04  -1.0436837303344825e-04  -1.1078647067662970e-04  -1.1069422049797672e-04  -1.1210264008404439e-04  -1.0856820034619257e-04  -1.0100392474637414e-04  -9.8294929481238847e-05  -9.2812950717898645e-05  -8.6277723617956788e-05  -7.8054947445417688e-05  -6.6675859427987836e-05  -5.7716836451378146e-05  -4.9997982378667647e-05  -4.3173572655311701e-05  -3.3143509780853670e-05  -1.9521726894769692e-05  -5.2295243021356946e-06  5.8465056254366542e-06  2.0278437038705726e-05  3.4313719505409240e-05  4.6443239430718581e-05  6.3090957351862316e-05  7.7201796232985925e-05  9.2152035911961455e-05  1.0510092803206528e-04  1.2092682699486945e-04  1.3406190847893248e-04  1.4460508157160786e-04  1.5717418780358469e-04  1.7940900656715749e-04  1.8345032253508736e-04  2.0465640289800760e-04  2.2802187652027093e-04  2.3286621045422027e-04  2.4441792143030719e-04  2.5950982139674364e-04  2.7209953174803719e-04  2.7611183886231029e-04  2.6838673336693046e-04  2.9115583699171213e-04  2.8303910990894898e-04  2.9844004216322096e-04  3.1608864653784178e-04  3.1701743656393041e-04  3.2248343239145509e-04  3.2188032504441876e-04  3.2892319561306579e-04  3.2920849858749063e-04  3.4682185274311048e-04  3.2815823908549836e-04  3.3691146452969071e-04  3.3406387093791391e-04  3.3664659793873516e-04  3.3923240831480457e-04  3.2221572273823806e-04  3.1139037986513266e-04  3.1565565169786497e-04  3.1159275892856623e-04  2.9876886434944400e-04  2.9148521319007206e-04  2.7458840983025158e-04  2.6999678224081330e-04  2.7022188913184011e-04  2.6096558690499362e-04  2.4883203984971212e-04  2.4016175511549316e-04  2.1944170377664508e-04  1.9518015277075794e-04  1.7933829056706875e-04  1.7992585788973250e-04  1.6548743555654441e-04  1.5002293834964924e-04  1.3463361132293308e-04  1.2147291305835523e-04  1.0446583376702344e-04  9.1604111021445833e-05  7.5652734372649795e-05  6.0923217361107533e-05  4.7708400159446138e-05  3.2367607990244376e-05  2.1123305041995238e-05  6.2247695321026292e-06  -6.1609983300742192e-06  -1.5816924170956999e-05  -2.5977501200464658e-05  -4.1177596346812191e-05  -5.1087822183770184e-05  -6.0740393352564555e-05  -7.3359589262834003e-05  -7.5941813424842332e-05  -8.1329714832242464e-05  -8.8333510904964679e-05  -9.8659212387275808e-05  -9.8118956624256845e-05  -1.0495604836409932e-04  -9.6461526074706879e-05  -1.0403797008855202e-04  -1.0672371499696921e-04  -1.0595961175471578e-04  -1.0372544793619634e-04  -1.0665134652130814e-04  -1.0456837538382844e-04  -1.0377350069404968e-04  -9.0164316912137658e-05  -8.6804851219275436e-05  -8.2380428344568657e-05  -7.5689741119474424e-05  -6.8092135013437928e-05  -5.7109742234950840e-05  -4.6646146407041161e-05  -3.5515486460358542e-05  -2.3769479903533398e-05  -1.2258965210463154e-05  -1.8385868775916462e-06  -7.5208020240995413e-11  -1.9945420997646232e-10  -9.0767627517656646e-05  -3.1927416096312154e-10  -2.7350871562937255e-10  1.6807508201613475e-10  -2.2385918435395405e-07  3.6574935142265010e-10  -2.1870485807478183e-07  1.0809571486007225e-07  1.1336104965761344e-07  5.1473075075480104e-11  -3.3822225819906282e-10  1.7975494426917177e-10  -2.4770265789124390e-10  -9.4454866558867421e-10  -2.5321087366284652e-09  -1.0498963824591176e-10  -1.7580448840343298e-11  -1.6167127102101257e-10  3.3163213095083998e-10  -2.3994981623500173e-10  -4.5934666373897853e-11  -8.8525632674519399e-06  -8.4980062224477743e-06  3.5833965577777241e-09  -5.5354223692676340e-09  4.1148488162494020e-09  -6.1455200613911788e-09  3.6918151710254318e-06  3.1851666687972577e-06  -4.2066273336665788e-07  8.4801851300635262e-11  1.1734480266283277e-10  -4.5616467842047196e-10  -1.2164595620428870e-10  7.2970273577675685e-11  1.3605328421065715e-10  4.1779320695170843e-10  -1.1508412340353283e-09  -1.0582291108885387e-09  1.8856480132521370e-08  -3.3291425448071691e-08  -3.9442689803544464e-08  5.2010096161453075e-10  1.7858321593472056e-08  8.3813115640657023e-10  -2.5998181515879519e-10  -2.7085778392455389e-10  -1.2652128527213197e-06  6.1114470358691063e-07  6.3850940322180407e-07  -1.3022722048342709e-06  -3.7043814593481508e-10  -5.4900415547932638e-11  5.2372372483610355e-10  -1.1182966507356574e-05  -1.0174242030538954e-07  -3.8883598860593909e-11  -2.2065543087928591e-08  1.6005075603020282e-10  2.3802506047556849e-10  2.3416022439138761e-10  1.9291358153316389e-10  1.3090408909911384e-05  1.5099392446301864e-05  2.1023530971767675e-10  7.7492232944919308e-06  7.9186016562034852e-06  1.1739558245036489e-10  4.8347553084319723e-07  2.5958300298879801e-10  2.3192008946429095e-07  1.7550710523661876e-10  1.1203220866733312e-09  3.6953058302602096e-08  7.0948142143339443e-10  6.7490364887598676e-09  5.7004276860228749e-09  -4.8194044581884354e-05  -4.9215090003200031e-05  1.3426888576443401e-06  -2.5180316602134724e-10  3.5317372396393728e-08  3.0436880128168016e-05  2.9992761436402090e-05  2.2460194248465531e-10  1.3866269133735310e-10  1.3884145595783405e-10  2.1163813882949944e-10  2.1392385876783884e-06  1.9040648597155286e-10  1.7995865088893432e-10  4.4578924948844782e-11  2.7223723552486983e-09  1.3538665371698740e-08  -1.2609178086386138e-05  -1.4784963122978840e-05  9.1315041443025373e-08  -4.3664780701680261e-07  5.1218474871570556e-07  7.7768024739031028e-11  -2.0525799240179059e-06  2.5026067056172280e-10  3.5982025091230947e-10  7.5003733265081514e-08  3.4303353020513318e-06  1.7613792956402428e-08  2.1102875868423017e-09  4.4063893220706158e-10  1.2205650622015694e-07  6.0381859625043636e-07  1.3307740538337838e-10  8.3855328657860489e-11  1.2827922420927180e-10  -9.1262407588529871e-11  1.5313981217748995e-10  1.6949403281703271e-10  1.9968829476146395e-05  1.4160794910609231e-10  1.2450013217265566e-10  8.0224412471078051e-06  2.0731998963126197e-05  2.9666582341229059e-10  1.2891004249410200e-10  2.2786308983970647e-10  1.0843140334398203e-10  1.3028119428474945e-09  -6.6348867719475619e-10  2.6873439346936012e-10  8.1852684988161985e-11  4.4391958316425359e-10  3.5877828565996593e-10  -1.1814941344780635e-08  1.9817798554240045e-10  -2.4978656054216007e-09  1.0761597806943126e-10  1.2693069352250458e-10  9.3717819603073202e-08  1.5535280862357816e-06  -3.8371710540117158e-06  1.6543020067478458e-10  2.6791451471821411e-10  4.7066564529434255e-11  -4.1191173485491728e-10  4.1018365049954592e-05  1.3459754155567857e-05  -2.5705938596015675e-09  -2.7742407266301682e-09  1.5684357790169081e-09  -4.4057402446979935e-10  7.7622679918600164e-09  -1.3616723765603498e-08  -1.9239718385137633e-10  1.6987416720618846e-11  1.4268515787453537e-10  -1.6731292688280048e-07  4.2538245069931747e-05  -5.9222817908898679e-10  2.9294959418545115e-11  4.3972065553902152e-10  1.3269782424004999e-10  -3.2821433639138862e-11  4.5690963054846189e-12  -9.2928704838106955e-11  9.8930662779938333e-11  7.2397319372230655e-11  1.2314475594153682e-10  5.4152065003263005e-06  -2.2735685044652128e-10  7.5317871654736909e-06  -2.7518240530541554e-06  -2.2033863993732875e-05  1.7047930784149092e-06  8.8684118569547233e-06  -1.8412705507615317e-05  -5.8491386742452102e-10  4.7591519640228062e-08  -9.4034732103775011e-08  2.7179914448547704e-07  2.2496628255714807e-07  1.9187202991712242e-10  3.4882835844607748e-10  1.9323251369895530e-08  4.9359500536740730e-05  4.9064962726844706e-05  -1.1959237206238032e-10  8.3230559902589808e-07  1.0290429126893782e-10  2.2363313968616400e-07  2.9537480848753245e-11  7.9731119047099702e-06  -4.6255425752159117e-11  1.7207607083860060e-10  5.2567407948699892e-09  6.3794440541220806e-09  8.5101914245300853e-09  -5.8531007010051119e-07  -1.2327848925653133e-06  8.3822125857142859e-11  3.8395030447359727e-10  1.3958098424057846e-06  2.5368186570716413e-10  7.3041813222904846e-10  1.2032869884151288e-10  -2.1856025759840063e-08  -2.9496269692918505e-10  -4.7353349285595868e-08  -5.9408769948797474e-07  -5.4588499047889882e-06  -2.9317158308709909e-10  -1.4379659979052794e-08  -5.6396285119797663e-07  -3.0965712627385812e-05  -3.0682830193975890e-10  -1.0370163591806681e-10  -2.4329529620055692e-10  -3.2033747443231816e-06  -1.3318781566230063e-10  -5.7397300983633805e-07  -7.4837433212581654e-05  -7.8479579060202598e-05  -2.5561812162524193e-10  -1.6280407369490276e-05  1.2954883414143198e-10  -1.4335590233873688e-10  -1.9599666769640707e-10  -9.4380947888999138e-08  -1.1475071357364520e-11  9.3253040245073684e-11  -4.2491433019284689e-11  2.5394472437858407e-07  1.0149625455433190e-10  -5.0695095690509201e-11  -4.9394557822964865e-11  1.1485448488145657e-09  1.7004488609959488e-09  6.2154849558033736e-11  2.9765870560774899e-08  1.0286281409960450e-09  1.6614027059939508e-05  3.6308197013292052e-10  -1.6519307663871115e-10  2.5813515272180166e-07  1.4316221293238607e-09  8.6082675731883212e-09  1.3852162876951788e-06  4.6288962725011869e-08  4.1764473266551156e-10  4.6067563687653225e-08  8.0228021739883361e-09  1.5824786029759533e-09  1.8461946676640669e-10  3.0661062565882856e-10  7.0697289650467649e-06  5.0681147436942066e-10  2.0605430771572045e-06  -3.1791047107532237e-11  1.5683864577003963e-06  6.1733099117256296e-08  2.7889846672279933e-10  1.3089715787086267e-10  1.3287875645908166e-06  2.2229156344302710e-10  -8.4676874580555773e-11  3.5498696225784204e-08  2.1884166540067627e-10  2.3665831697851770e-07  1.8068099286730388e-10  1.9947874169631452e-10  1.8499426664167633e-10  2.2202749046428481e-10  1.4811403957524407e-08  1.0285954109959518e-11  -3.7001083204463357e-11  7.9875208572138574e-09  -1.9475168682586117e-07  1.0284741128320380e-06  1.5489157048058367e-10  4.2703006091308611e-06  8.7002711861149187e-08  -1.7840324998272221e-10  1.2719557372782155e-08  3.4238473986188684e-09  1.1380667815614483e-08  5.2068450211423507e-10  -5.9839352958499643e-11  -3.9855267155524255e-09  1.4491642439721218e-08  6.9801698151958087e-12  1.3542190544621547e-06  5.1720524536842824e-11  -7.5170803975096457e-11  2.6378563608545987e-10  2.8908614115594920e-06  9.6482472479623296e-06  4.7042881660782587e-07  3.3248820691926254e-11  1.3871471873543354e-10  1.0297115137929776e-10  -1.6351872415030033e-07  -2.7687471225658873e-09  -4.6288974805727400e-06  -7.2226601734148136e-07  2.9797360102903932e-10  9.6559009843743952e-11  9.4899317694815510e-11  1.8545406674784244e-10  1.8880539531858955e-10  1.8258990777764823e-10  -6.0291120539404690e-11  -3.0128764491297435e-10  1.5535590380464892e-10  6.7471885408200592e-05  1.4649931360343549e-10  1.4870710594870712e-05  2.2535952554614502e-05  -1.6998763997571283e-07  -2.7478249653959113e-06  -1.2126892316717639e-06  -1.9194166783235033e-10  -1.0844342546942747e-10  6.7173325626040904e-05  -2.0575668703505216e-05  -2.1014213867377488e-05  1.6327084109906148e-05  1.6965793019227943e-05  7.1887109965839026e-11  2.8259036725941260e-11  1.8321322311371656e-10  -2.0843285479136178e-07  1.4599860316150749e-10  -1.4075375221967151e-10  1.4167787785375266e-10  2.7988962140377252e-11  1.7022598357760660e-10  4.2565842357176400e-11  3.3607519824395356e-07  2.3417956125344251e-08  1.9412552899273887e-09  3.4394022800312725e-08  -7.0494240650202308e-11  1.8941993695547200e-10  3.0484553632033335e-09  7.0862480089385743e-09  -1.6104717328942519e-06  -6.8037852245338100e-09  1.2195846607793527e-10  -2.8569456489422131e-08  9.0493436862086068e-08  1.6344175482197985e-07  5.9883639416176543e-11  -9.2396205964302567e-07  -2.8360539592974058e-11  -1.9809443530311384e-06  1.9999439448486175e-10  5.1098768287822733e-07  1.6586435183288014e-10  1.5839430745995278e-06  4.0076785237822833e-09  1.1915115326400813e-09  1.1876590559793515e-09  -1.8976387710066349e-11  -1.1070239070825757e-10  2.3492549288870117e-09  -5.3577221508508380e-05  -5.7822131926538768e-05  1.2664323466448030e-11  2.7999089328651365e-10  4.9303276572960971e-10  1.4516449167999540e-07  7.4370340955723831e-08  2.5457141662448709e-07  6.3718382037513884e-10  -1.9007326218114156e-05  -8.3423024421258673e-06  -2.7766782861548702e-11  2.5795283995773620e-09  -5.5606064166095202e-08  -3.9231667784711026e-09  3.3597798872384284e-05  -5.5785273994004518e-06  1.6256804469616859e-08  3.5168158950620681e-08  4.2575764517364479e-10  9.2180154089026678e-10  2.3895776247923651e-10  1.0548132133422225e-07  5.4616576105523992e-06  2.8116837255118428e-06  -5.5728130055903564e-06  1.2194987500397805e-06  5.7226670034408492e-07  -5.7759302445934122e-11  4.7789662272157063e-05  -1.0515554532996690e-08  8.4105798252803739e-11  2.8337710466542869e-06  1.3429536865503877e-05  2.8815931158435940e-10  -2.8634972150950545e-10  6.8495255025919023e-11  -1.6946796368265613e-09  2.9610597903349943e-10  3.4504966894791724e-10  2.6194803156820879e-10  -1.1926018208461256e-10  2.1171438023030604e-10  -1.9538813303635388e-06  3.0191794638973214e-09  -1.3663418003799016e-10  1.2785596717836226e-09  4.6408502799231890e-05  4.5740085086276862e-10  3.5456955507736926e-08  1.9270013098201996e-10  -2.0536855839473629e-11  8.7562721596384303e-12  7.4209118847690197e-11  -2.2528108914632548e-10  9.7666010072327623e-09  1.3936632374542862e-05  1.4338798729778556e-05  1.3910280414128738e-08  1.4189745173168306e-09  -9.3742952908349845e-11  -1.0367739614716030e-10  2.2378681538172802e-10  5.3788982006609443e-10  1.2624499321492105e-05  3.0847837536061912e-05  -1.9825325465212770e-08  8.9855475524590169e-11  3.1952559516720182e-05  -4.8695819981704580e-07  -1.1150682357763120e-06  -1.4645920710976712e-10  5.2704909545649829e-10  5.4596340941509960e-08  2.4842567421750398e-05  -5.2835575306618305e-06  -8.3472830657117515e-11  -6.0728431564610125e-10  -7.5966309880846183e-10  -1.4294831934799499e-09  2.0084870186013120e-10  1.1979921951044696e-10  1.9168731569327475e-09  -2.2233595578405760e-11  1.8457841658610713e-10  -7.6898559483914154e-11  -2.1825108202284002e-10  4.5644085464293749e-05  1.1284312782609633e-10  3.1469844528358150e-07  9.1797341678038958e-11  1.2914084985863577e-05  5.4444885896261609e-09  2.4459610649684901e-10  -2.0033248730463732e-10  3.3807813385305654e-10  3.7817406456578082e-07  2.1769138200047904e-06  -8.3698456999840271e-08  -1.3929539229080154e-09  -7.2536600053373250e-09  -3.5246984779029616e-10  1.8438884057730284e-10  2.1253604382091184e-10  2.4205118087278023e-10  -3.6595314455914322e-07  -8.5415391379208463e-11  1.0095096097635374e-06  1.1147965838993636e-08  2.4869455832065146e-11  5.5053869789414039e-05  2.9696187493441781e-05  2.7769635627857937e-06  1.3333383078211384e-05  1.8976861900330203e-05  3.3613383196766564e-07  -1.1600756402424677e-10  9.1627699081983222e-11  2.4021374043879024e-08  8.3207736667442499e-11  1.1127489894868344e-10  1.1352705361336315e-10  1.2147020902343657e-10  2.8518994771659838e-10  1.5014937890649321e-10  1.7876192314336812e-10  -1.3363302787046473e-08  1.8725864066851422e-08  3.2813993762783328e-09  -1.3113295375372068e-08  2.6763993618961194e-07  5.2352306282208203e-05  2.7209585384800441e-05  6.3102989681910524e-08  3.7485758290412578e-10  3.9860983138281339e-10  -4.5477169929507347e-11  2.0148949963251205e-10  4.5507556388641608e-09  9.6743847435104344e-09  6.9441509859446229e-06  7.8302369109821975e-07  3.0289294939830120e-08  5.0069348306747074e-08  1.2686415023712708e-10  2.0878206110198803e-05  2.3201300867435154e-10  -4.1749275970909657e-10  2.2777763885100859e-10  1.3326104024936168e-10  1.5226347942340826e-05  2.5557713493185957e-10  4.2166527134056175e-06  -8.4583419946783486e-09  -5.0575718236509213e-08  1.9145467637937219e-06  1.3691928170819139e-11  1.7547139417795722e-07  1.3100311105164609e-10  -4.2019239192466754e-09  4.2760028882067562e-06  2.3970004676349762e-07  -7.0226285439662071e-08  2.0434292092345324e-10  2.3429087518240340e-10  -1.4640412634265823e-07  -2.2011109071426715e-10  9.5971939270013018e-08  -7.2307604252467808e-11  -9.4460481548279934e-11  -1.0716698950345719e-07  6.7310700754681693e-06  -1.4167883680740015e-11  1.5795038728364998e-10  1.3809389271546612e-05  1.9795742951845987e-08  8.9282152691435953e-09  1.2103714129428289e-07  8.3344906246980240e-07  6.3984812878074059e-05  1.2186868641378649e-05  8.8405972442186872e-06  6.5636787806825167e-05  1.7246028661123714e-10  1.3738704003364823e-10  -1.3548645111328075e-10  4.2250552913236023e-11  1.9468014537859082e-07  -2.2785715535219994e-08  -3.3984138957089729e-09  -3.5628237633496427e-10  -3.2719674604439308e-11  5.0120645226767768e-10  4.3336201892941461e-10  7.1040294682757640e-11  -1.3228716060112984e-10  -1.5637292913141233e-10  9.5136075847960600e-07  -2.8512926907744725e-10  3.1287371763466205e-10  -6.4303573993119506e-07  2.6645956738076545e-10  1.1459915739903757e-10  1.8137839028263881e-10  5.2778369598728815e-06  7.7344792384511108e-06  1.7557572527680796e-10  3.1143952100100620e-10  2.2053367735034652e-10  2.9205831430809357e-10  2.7427865892638050e-10  -1.0405037070115541e-10  2.5072170547206979e-10  3.7409195109540928e-07  -1.6948630776653422e-09  1.0676154787918309e-10  -9.1967152878467704e-08  -1.8681560493062005e-07  -3.0399744215197174e-10  1.2411869430799942e-10  -6.2559410224429469e-08  2.4204089747625417e-10  -3.0874674716748976e-10  1.4182340699689279e-10  9.9887612845702086e-11  4.5296515666094626e-11  1.5578347067099312e-10  -1.1995479210298865e-10  -1.3136466722179334e-10  1.7357285936704110e-05  2.9479055598914643e-05  1.3199162585903146e-10  -3.3674877728969924e-10  -1.3554728458747830e-10  1.0427657503214077e-10  2.1170203151572632e-10  1.3289192220452946e-10  -4.4638425956741743e-05  -5.9615011596983435e-05  -4.3215732928529580e-05  -3.4920011290569288e-10  2.1055820674675669e-10  7.3320486774704600e-07  1.1859385484442486e-10  1.3764854887152750e-06  6.4647727463233865e-11  7.7125064844500935e-07  -1.8476441660845722e-07  -1.3817731724366925e-08  5.6214091844612619e-11  3.6136600987462188e-10  4.1398999504390175e-10  5.0057167218230748e-06  5.1625858488392960e-06  9.9825639347481543e-11  3.1846821153988148e-11  -1.0549322167054074e-10  6.1065309765778868e-07  1.4861990085708805e-07  -3.6324365413397046e-10  3.0558678162440075e-10  6.0175318181895862e-08  2.9286587227519819e-08  -1.2306689333607167e-10  -1.4828434441650281e-08  6.5582342899087914e-10  1.3517001501024698e-10  -3.2704160157123571e-10  1.1190752441772004e-10  7.5529026533462643e-10  3.1332928538827818e-10  -8.2961060068082142e-10  1.2161559833447207e-11  -1.7170570222607754e-10  1.3908925153493746e-07  -1.1618198031834326e-10  -6.0071652796124470e-05  -4.9959930976941593e-08  -8.3336279273223415e-11  2.4741657711538931e-10  4.1865837280306638e-09  4.7505282860672866e-09  -1.2804396409331574e-10  -6.2502386807152147e-07  -4.2299108295390553e-06  2.0853589021688131e-07  -2.4914649144809008e-05  -2.2408855825793449e-05  -1.1607156024649400e-05  2.0412132293733343e-10  -2.5607910379935696e-10  1.9245958344165058e-11  -1.0644620769874374e-10  6.7700122914585189e-10  1.3446280306145557e-09  8.4373920824056582e-06  1.6959470046887911e-10  -3.9653194924756348e-07  -4.3547827382416771e-11  1.7956853226850193e-07  2.2565418595771369e-10  -7.9810391837587908e-07  -2.6591654933842814e-06  4.5540599297089144e-11  -4.9811282647369031e-06  1.1090785692129855e-10  9.3638213583343957e-06  1.7917440409793420e-05  6.1682393970430374e-09  2.8223987332240137e-10  6.0843957354439350e-08  -3.1540036166273013e-11  4.7239209348922885e-07  7.7794759905366221e-10  5.7473247901113877e-06  -4.9458965200494988e-10  -9.9818110953817797e-10  -6.3702665974790053e-11  1.7077887743449783e-10  1.7433522484321023e-10  -2.02700701271827