<?xml version="1.0"?>
<VTKFile type="UnstructuredGrid"  version="0.1"  >
<UnstructuredGrid>
<Piece  NumberOfPoints="2834" NumberOfCells="4927">
<Points>
<DataArray  type="Float64"  NumberOfComponents="3"  format="ascii">-20 2 0  -20 0 0  -1 0 0  -0.9996988186962042 0.02454122852291233 0  -0.9987954562051724 0.04906767432741797 0  -0.9972904566786902 0.07356456359966773 0  -0.9951847266721968 0.09801714032956083 0  -0.99247953459871 0.1224106751992163 0  -0.989176509964781 0.1467304744553618 0  -0.9852776423889412 0.1709618887603012 0  -0.9807852804032304 0.1950903220161286 0  -0.9757021300385285 0.21910124015687 0  -0.970031253194544 0.2429801799032641 0  -0.9637760657954398 0.2667127574748985 0  -0.9569403357322088 0.2902846772544624 0  -0.9495281805930367 0.3136817403988914 0  -0.9415440651830207 0.3368898533922203 0  -0.9329927988347388 0.3598950365349883 0  -0.9238795325112867 0.3826834323650899 0  -0.9142097557035307 0.4052413140049899 0  -0.9039892931234433 0.427555093430282 0  -0.8932243011955152 0.4496113296546069 0  -0.8819212643483549 0.4713967368259979 0  -0.8700869911087113 0.4928981922297841 0  -0.857728610000272 0.5141027441932218 0  -0.8448535652497071 0.5349976198870972 0  -0.8314696123025453 0.5555702330196022 0  -0.8175848131515836 0.5758081914178454 0  -0.8032075314806448 0.5956993044924335 0  -0.7883464276266062 0.6152315905806269 0  -0.773010453362737 0.6343932841636455 0  -0.7572088465064846 0.6531728429537766 0  -0.7409511253549589 0.6715589548470186 0  -0.7242470829514668 0.6895405447370671 0  -0.7071067811865475 0.7071067811865476 0  -0.6895405447370669 0.7242470829514669 0  -0.6715589548470184 0.740951125354959 0  -0.6531728429537765 0.7572088465064847 0  -0.6343932841636454 0.7730104533627371 0  -0.6152315905806267 0.7883464276266063 0  -0.5956993044924334 0.8032075314806449 0  -0.5758081914178453 0.8175848131515837 0  -0.555570233019602 0.8314696123025455 0  -0.534997619887097 0.8448535652497072 0  -0.5141027441932217 0.8577286100002721 0  -0.492898192229784 0.8700869911087115 0  -0.4713967368259977 0.881921264348355 0  -0.4496113296546067 0.8932243011955152 0  -0.4275550934302819 0.9039892931234434 0  -0.4052413140049897 0.9142097557035307 0  -0.3826834323650897 0.9238795325112867 0  -0.3598950365349882 0.9329927988347388 0  -0.3368898533922199 0.9415440651830208 0  -0.3136817403988914 0.9495281805930367 0  -0.2902846772544622 0.9569403357322089 0  -0.2667127574748983 0.9637760657954398 0  -0.2429801799032639 0.970031253194544 0  -0.2191012401568697 0.9757021300385286 0  -0.1950903220161282 0.9807852804032304 0  -0.1709618887603012 0.9852776423889412 0  -0.1467304744553616 0.989176509964781 0  -0.1224106751992162 0.99247953459871 0  -0.09801714032956065 0.9951847266721969 0  -0.07356456359966733 0.9972904566786902 0  -0.04906767432741801 0.9987954562051724 0  -0.02454122852291214 0.9996988186962042 0  6.123233995736766e-17 1 0  0.02454122852291226 0.9996988186962042 0  0.04906767432741813 0.9987954562051724 0  0.07356456359966745 0.9972904566786902 0  0.09801714032956077 0.9951847266721968 0  0.1224106751992163 0.99247953459871 0  0.1467304744553617 0.989176509964781 0  0.1709618887603014 0.9852776423889412 0  0.1950903220161283 0.9807852804032304 0  0.2191012401568698 0.9757021300385286 0  0.242980179903264 0.970031253194544 0  0.2667127574748984 0.9637760657954398 0  0.2902846772544623 0.9569403357322089 0  0.3136817403988916 0.9495281805930367 0  0.3368898533922201 0.9415440651830208 0  0.3598950365349883 0.9329927988347388 0  0.3826834323650898 0.9238795325112867 0  0.4052413140049899 0.9142097557035307 0  0.4275550934302822 0.9039892931234433 0  0.4496113296546066 0.8932243011955153 0  0.4713967368259978 0.8819212643483549 0  0.4928981922297841 0.8700869911087113 0  0.5141027441932217 0.8577286100002721 0  0.5349976198870973 0.844853565249707 0  0.5555702330196023 0.8314696123025452 0  0.5758081914178453 0.8175848131515837 0  0.5956993044924335 0.8032075314806448 0  0.6152315905806268 0.7883464276266062 0  0.6343932841636455 0.773010453362737 0  0.6531728429537768 0.7572088465064845 0  0.6715589548470183 0.7409511253549591 0  0.6895405447370669 0.7242470829514669 0  0.7071067811865476 0.7071067811865475 0  0.724247082951467 0.6895405447370668 0  0.7409511253549591 0.6715589548470183 0  0.7572088465064846 0.6531728429537768 0  0.773010453362737 0.6343932841636455 0  0.7883464276266063 0.6152315905806268 0  0.8032075314806449 0.5956993044924334 0  0.8175848131515837 0.5758081914178453 0  0.8314696123025452 0.5555702330196022 0  0.8448535652497071 0.5349976198870972 0  0.8577286100002721 0.5141027441932217 0  0.8700869911087115 0.492898192229784 0  0.881921264348355 0.4713967368259976 0  0.8932243011955153 0.4496113296546065 0  0.9039892931234433 0.4275550934302821 0  0.9142097557035307 0.4052413140049899 0  0.9238795325112867 0.3826834323650898 0  0.932992798834739 0.3598950365349881 0  0.9415440651830208 0.3368898533922201 0  0.9495281805930367 0.3136817403988915 0  0.9569403357322088 0.2902846772544623 0  0.9637760657954398 0.2667127574748984 0  0.970031253194544 0.2429801799032639 0  0.9757021300385286 0.2191012401568698 0  0.9807852804032304 0.1950903220161282 0  0.9852776423889412 0.1709618887603012 0  0.989176509964781 0.1467304744553617 0  0.99247953459871 0.1224106751992162 0  0.9951847266721969 0.0980171403295606 0  0.9972904566786902 0.07356456359966743 0  0.9987954562051724 0.04906767432741801 0  0.9996988186962042 0.02454122852291229 0  1 0 0  20 0 0  20 2 0  0 2 0  -10 2 0  10 2 0  -10.5 0 0  -5 2 0  10.5 0 0  5 2 0  -15 2 0  -5.75 0 0  -2.5 2 0  15 2 0  5.75 0 0  2.5 2 0  -15.25 0 0  -3.375 0 0  15.25 0 0  3.375 0 0  -17.625 0 0  -17.5 2 0  17.5 2 0  17.625 0 0  8.125 0 0  7.5 2 0  12.875 0 0  12.5 2 0  -12.5 2 0  -12.875 0 0  -8.125 0 0  -7.5 2 0  -18.75 2 0  -18.8125 0 0  18.75 2 0  18.8125 0 0  16.4375 0 0  16.25 2 0  -16.25 2 0  -16.4375 0 0  13.75 2 0  -14.0625 0 0  -13.75 2 0  -11.6875 0 0  11.6875 0 0  -9.3125 0 0  8.75 2 0  -8.75 2 0  6.9375 0 0  6.25 2 0  -6.9375 0 0  -6.25 2 0  9.3125 0 0  11.25 2 0  -11.25 2 0  3.75 2 0  4.5625 0 0  -4.5625 0 0  -3.75 2 0  -1.25 2 0  1.25 2 0  14.0625 0 0  2.1875 0 0  -2.1875 0 0  -20 1 0  20 1 0  18.21875 0.982421875 0  -18.21875 0.982421875 0  16.875 1.0498046875 0  -17.03125 0.966796875 0  -15.84375 0.953125 0  15.625 1.0625 0  14.375 1.0732421875 0  -14.375 1.0732421875 0  1.830289387965117 1.052284088108649 0  -1.830289387965117 1.052284088108649 0  -3.125 1.08203125 0  -13.28477656888586 1.012129001112436 0  13.125 1.08203125 0  3.125 1.08203125 0  -4.375 1.0888671875 0  11.875 1.0888671875 0  -11.875 1.0888671875 0  4.203765290519877 1.0193030867737 0  -5.625 1.09375 0  5.625 1.09375 0  10.625 1.09375 0  -10.80634835916782 1.025744365312066 0  9.375 1.0966796875 0  -6.875 1.0966796875 0  -9.375 1.0966796875 0  6.684990875912408 1.03136405109489 0  -8.322099415573495 1.036062682633283 0  8.125 1.09765625 0  19.11075969939671 0.8508947319664032 0  -19.11075969939671 0.8508947319664032 0  -7.53125 0 0  8.71875 0 0  7.423362102206937 0.6655467048188293 0  9.90625 0 0  -6.34375 0 0  -10.07209987056368 0.6864155791813131 0  -5.15625 0 0  4.932893941568688 0.70313517104756 0  11.09375 0 0  -3.96875 0 0  12.28125 0 0  -12.56167362378033 0.7158719711052053 0  -15.12789358749343 1.239622257084254 0  19.375 2 0  -19.375 2 0  -7.586458743762512 0.7777256637040587 0  -8.876841588719831 0.5749490497356908 0  -2.78125 0 0  13.46875 0 0  2.486351124110562 0.6882204272146759 0  -2.484375 0.6875496078884429 0  13.765625 0.6685592193186988 0  6.127605163798639 0.5971727330055587 0  0.625 2 0  -0.625 2 0  -1.146535794159178 1.28513409566998 0  1.146535794159178 1.285134095669981 0  14.65625 0 0  14.953125 0.6512707752786624 0  -14.87682753143027 0.5890664696931456 0  12.578125 0.6384885491877257 0  -3.671875 0.6384885491877257 0  -15.625 2 0  -11.36675239212577 0.6158089665857418 0  15.00271470412651 1.324726469417674 0  17.53235848397354 0.7266244978817956 0  11.390625 0.6116981677410314 0  -4.859375 0.6116981677410314 0  15.84375 0 0  16.140625 0.6148897058823529 0  7.497593266890831 1.330710907262048 0  13.76254792112057 1.334335181755445 0  -10.20969602084016 1.352738855957021 0  17.03125 0 0  3.639986821556412 0.6311208834101457 0  -2.422032960990368 1.344610008595471 0  -1.875 2 0  2.42168763602468 1.344854035092462 0  1.875 2 0  -6.046875 0.5879464285714285 0  10.203125 0.5879464285714285 0  4.785027294216357 1.360955117010924 0  -16.43327865604348 1.32661481258014 0  -16.44139997701004 0.663326532427168 0  -12.71719161438206 1.366886164755866 0  9.015625 0.567039754702805 0  -13.85227446991684 0.6433291643838606 0  17.68435132148515 1.367585767263021 0  -8.125 2 0  -7.779164034427432 1.405551895778211 0  6.875 2 0  -16.875 2 0  16.25211206745888 1.264109755085799 0  -3.748868614850469 1.292331074664245 0  12.50113138514953 1.292331074664245 0  -4.999425840599162 1.238293400364507 0  11.25057415940084 1.238293400364507 0  10.00021284174179 1.186027320246887 0  -6.249787158258211 1.186027320246887 0  8.750028772491092 1.133996757348608 0  8.125 2 0  -9.375 2 0  -6.875 2 0  9.375 2 0  10.625 2 0  5.625 2 0  -5.625 2 0  -11.875 2 0  11.875 2 0  -4.375 2 0  3.125 2 0  13.125 2 0  -14.375 2 0  14.375 2 0  15.625 2 0  -18.125 2 0  16.875 2 0  -3.125 2 0  -10.625 2 0  4.375 2 0  -13.125 2 0  18.125 2 0  -17.62042339570457 1.322431301452557 0  -17.64048254773117 0.661277151197267 0  -1.59375 0 0  1.59375 0 0  -19.40625 0 0  19.40625 0 0  20 0.5 0  19.0625 1.466926268772181 0  -18.7305243036722 1.362703047674974 0  -5.451064633443578 0.5209722999527524 0  10.79893536655642 0.5209722999527524 0  9.610417111950763 0.5183010867631196 0  -13.46875 0 0  3.96875 0 0  -11.09375 0 0  6.34375 0 0  2.78125 0 0  -8.71875 0 0  -12.28125 0 0  5.15625 0 0  -9.90625 0 0  7.53125 0 0  -15.84375 0 0  -17.03125 0 0  -18.21875 0 0  18.21875 0 0  -14.65625 0 0  20 1.5 0  -19.48071156660626 1.370757229128913 0  -20 0.5 0  -4.24552725411087 0.5169543671041
[...]
<PointData  Scalars="f_6829382"> 
<DataArray  type="Float64"  Name="f_6829382"  format="ascii">6.7106135357837909e-02  -4.1678007806640015e-02  -1.0523996122833866e-01  -1.7055347671512078e-01  -1.5883394082580540e-01  -2.1186448556136145e-01  -3.2196684119099267e-01  -4.3964151516631733e-01  -6.0604564430578667e-01  -7.8205085644901984e-01  -1.0489098273762019e+00  -1.2058942383880253e+00  -1.5297960932412098e+00  -1.9123869663519713e+00  -2.3343430779859968e+00  -2.8906500202950638e+00  -3.4990443960915623e+00  -4.1920821685007121e+00  -5.2843316754633065e+00  -6.2539717972381368e+00  -7.3155209340302472e+00  -8.9586298063923007e+00  -1.0657349883257575e+01  -1.2413927856755192e+01  -1.4652981516801571e+01  -1.7896669193582767e+01  -2.0742742260653390e+01  -2.3647839543981707e+01  -2.7143683511370803e+01  -3.2641536223757626e+01  -3.6506203137615479e+01  -4.1763572670911877e+01  -5.3464788477329606e+01  -6.0708547399444853e+01  -7.1003382227254718e+01  -8.2268669304201140e+01  -9.7689540868951482e+01  -1.1149151124864196e+02  -1.3638299450232816e+02  -1.5406939902546367e+02  -1.7708511914871795e+02  -2.1185013677223932e+02  -2.2792217306883222e+02  -2.4989602458733890e+02  -3.0109284488202286e+02  -3.4339253494439600e+02  -3.5467733971558005e+02  -4.4828115893357528e+02  -4.9563124601230635e+02  -5.5477213550681904e+02  -5.8862408775703670e+02  -6.3449979657047572e+02  -7.2186220411918237e+02  -7.6261403709096066e+02  -8.3039776117468148e+02  -8.3462474679422394e+02  -8.4545914831332266e+02  -8.7300638436185727e+02  -8.9367732311275790e+02  -9.6053038905319795e+02  -9.8231713244374737e+02  -8.6490670335489801e+02  -8.1750500124581254e+02  -6.6422726648314620e+02  -5.1422758112153883e+02  -2.6483658403063146e+02  -2.1948158162473368e+02  -1.3054811131166218e+02  -2.8877782893485897e+01  3.9942560583486915e+02  5.6572276300734643e+02  6.1171801853748480e+02  9.2383696110512426e+02  1.1661863975566025e+03  1.2994103129689031e+03  1.3797467922775995e+03  1.4072486517758311e+03  1.5038999061301358e+03  1.5838622167220042e+03  1.5831022115549786e+03  1.5308315447971843e+03  1.4587762236235178e+03  1.3513355307627733e+03  1.2443311725153867e+03  1.2176727983628464e+03  1.2317404673776107e+03  1.1569187556268507e+03  1.0709260754311267e+03  1.0094466566396412e+03  9.6569223588582088e+02  9.1474861394583604e+02  8.6773599636910615e+02  8.1274204283260372e+02  7.5233662468747468e+02  7.0221263179278640e+02  6.7993083295930626e+02  6.2919902466145822e+02  5.6851364016151012e+02  5.3262354311260287e+02  4.9904963367495776e+02  4.5926795993341028e+02  4.1645821121053569e+02  3.9866768194028350e+02  3.7122304355239260e+02  3.3753171815583727e+02  3.1360093796327953e+02  2.8436478442733312e+02  2.6437572777113201e+02  2.3102575730587688e+02  1.9965738816782053e+02  1.8161875390661956e+02  1.5762205894689041e+02  1.3374607411931763e+02  1.1569641915259042e+02  9.4394694453757239e+01  7.8211468368828292e+01  6.2413484758623291e+01  4.4584622746608559e+01  3.3922826302607817e+01  2.5440003575411552e+01  1.7514627458602813e+01  1.1787996400876713e+01  7.4687504547334802e+00  5.0402495348238432e+00  3.1061897488584918e+00  1.9678038143523557e+00  1.2212652616221911e+00  7.6193953136675607e-01  4.9870219386374415e-01  4.9941005677944311e-01  2.1288652566558325e-01  3.2041415510259163e-06  5.4561299505392300e-07  -6.9011949190657856e+02  8.8403326253021434e-07  -8.8118765223680555e-07  -2.8209145454612934e-06  1.4622191786979285e-03  -6.9270012530892497e-07  -8.3426396188360525e-03  -1.7610513956055905e-05  -9.1100960409741289e-04  1.5563833508036953e-01  -1.0968372740494643e-06  4.4446287262411479e-03  1.4048346933954956e+00  1.7826212961863578e-04  -1.5339022721516379e-01  -1.1273165621273098e-06  3.9564535544744850e-01  5.3156593081701842e-03  5.5127016714693854e-03  -4.8240824804113159e-07  1.7768678915778548e-07  1.8612444152048620e-05  -9.5655034806270528e-05  -1.2838646115729611e-07  -8.3313208551011844e-07  -1.1463981831028660e-06  3.1393754502637212e-06  1.1249656139442074e-06  2.0833488716360876e-07  2.5721968424309918e-02  6.6128677329588990e-03  -5.6716411514875921e-07  2.8213775466742923e-06  -1.2578244147231394e-06  -1.0114674820363622e-06  3.6847363822522833e-04  1.4441346117288504e-03  -3.6753383590135412e-07  1.5247446944094359e-05  -4.3641293476119569e-06  -7.1367967268675430e-07  -2.8174781350608772e-06  -2.8623508332954444e-06  -6.1727862305979509e-06  -6.8923134717882157e-07  3.6095111355687309e-04  -1.0686276655087563e-03  -3.8254115393053277e-05  3.6519384227273208e-05  1.1149975086750787e-06  6.4649542275748133e-07  7.8438948957043989e-07  -8.7629872840448673e-03  4.9535308969545784e-02  -1.4015996994392939e-02  2.5076458400720588e-02  1.9345651510053565e+00  2.8152447137503639e+01  3.6105341888534792e-06  2.5845546886391437e+00  -1.5806842000927273e+00  -3.2119293691493231e-02  3.1909745108703561e-06  1.5891462037164596e-06  7.6664275893167525e-03  3.2785437307164811e-06  1.6566673901126747e-03  1.3083917157291072e-04  4.5399486228001072e-06  2.6408869035592027e-06  -7.2590673019050720e-06  4.1253307958937375e+00  -5.0723065811859958e-01  5.1255369808189205e-02  6.6886611952724125e-07  3.5479884706239745e-07  7.6194434239435116e-02  6.8625279982280395e-03  4.9740372565149611e-06  4.0683440017219452e-06  1.3320423253191567e-03  3.3711397193816536e-04  -1.7298217855703289e-03  5.7966905935027716e-06  4.0340375667221836e-06  3.4902717399354089e-06  8.6686939675696131e-06  2.7967986093985828e-06  -1.1635438157714292e-04  -1.1122332294891391e-06  -2.6606146168419093e-06  1.2653923315456330e-06  -4.3829433021995504e-03  -7.6004861931517677e-06  5.3905076540018570e-06  5.6528243520781182e-05  2.1440134439536645e-06  -1.8631991368830265e-04  -8.1760378295231234e-07  -3.6764116178801907e-03  9.3688709336299057e-03  -6.5472830249754252e-07  -4.6748178723994026e-02  -4.5051417136741612e-07  1.1762310219611974e-06  -4.1882539117198661e-05  2.8849201473603951e-07  6.2349071944012048e-02  -1.3730244944077322e-06  -2.0713716154739304e-06  -5.0463335777362539e-01  2.0371833874081519e-06  1.4294372664671082e+00  -2.8614244475139683e-01  2.8979292634984003e-06  1.1429082613931638e-03  -3.5535766092790067e+02  -1.0550569333344370e+01  -2.4992695704628272e+00  -5.3255995223531798e+01  4.5362625287757868e-07  2.1978014042038588e-06  5.0355562250588665e-05  2.1246281850478883e-06  -1.8816253191746513e-02  5.0820887739391425e-06  1.4834259228935324e-06  3.7719551873426733e-06  1.0749446859284301e-06  1.9375358572976207e-06  -1.4558040873611624e-03  -1.0315597727331512e-06  2.1421763098884575e-06  -5.9087317370891752e-05  1.7413278691626474e-06  5.0487998366242367e-06  -1.0027336312167903e-06  1.6004117662229397e-01  1.4681953465986397e-01  5.3703823532706607e-01  9.3225087935121065e-01  1.8009971461339699e+01  -1.0883502762760123e-04  6.3374952122762150e-07  -1.4848132742390758e-02  -7.2047541020849604e-05  1.0435052676246355e-03  4.0118168112628118e-06  6.1237322411265491e-06  4.8882673262426518e-06  1.2486292384414803e-06  -1.4605730646960181e-06  1.6953548641766240e-06  -2.9550363910037626e-04  1.5470264440387879e-03  3.8604559494120137e-06  3.1567813510763945e-02  1.8141683536134871e-06  1.9118590527386591e-03  4.0742912292875952e-06  5.4431565856241085e-06  6.7662114869146859e-05  1.0195195533118100e-06  -2.2411306340694693e-05  -2.4916591769179249e-06  5.0385315708651350e-06  -1.3690241616241362e-06  -9.0154428828587976e-07  -3.2705498119375543e-03  3.1231907514946388e-04  -4.2665612837550169e-07  8.4767401692563996e-07  5.8385712797014485e-03  1.8899809157532149e-01  7.8203864206290043e-07  -8.3601286654628695e-06  -2.7351985357474777e-07  -8.6534718430314574e-07  1.2533032994432215e-02  -9.8103053727131313e-08  8.2582450490614870e-02  4.1671071391396980e-07  -1.5869062382160050e-02  -1.1215044156951504e-06  -7.4533998615792652e-07  2.7501899768093948e-03  5.4542693104547291e-03  -4.4438680299961444e+00  6.8185184071860423e+00  2.3486527898270771e-03  2.6989421336866328e-06  6.3695559358683959e-06  3.1046795625509321e-06  1.4687487761642241e-02  -6.9981882030445918e-04  1.3881615608405576e-06  3.2340453178376841e-06  5.7271423418967385e-06  1.3347918798967509e-01  -1.4015252236341471e-06  1.2471727430955583e-03  9.9275227071191252e-01  4.4118563235507455e-07  1.1908069245783950e-06  1.4839484335077601e-02  -1.6944108266413434e-06  8.9662999296943991e-05  5.2425841811559878e-04  3.1543869218600214e-03  6.4386593715293440e-03  9.0011298976251660e-07  5.3771585846766468e-05  4.0721851035390691e-06  3.5079406614853571e-03  -5.7023486056810832e-02  -1.2872436957837439e-02  1.0633124284902561e-06  1.3018865528769907e-06  5.1844132041027648e-03  2.5648395037686479e-06  2.7948525664059404e-07  1.1945638941681507e-06  3.3054496899684474e-06  -1.4994600387967688e-01  5.4430320631944529e-01  -3.5619436880910067e+00  1.3063402788913406e+01  4.7713896138125931e-07  2.7226330110614936e-04  -5.3121896014791373e-06  1.9471040172094598e-06  -7.2477928398073918e-02  -7.5163361537771232e+02  -1.7907336131672179e+02  6.5311497526204373e-06  5.4248657926223659e-06  -7.7512353817164948e-03  5.0129530450760086e-03  -2.1299304485389221e-03  4.4690270940455561e-06  -3.7351304309862155e-05  4.3912199463080199e-06  -2.7165968994851557e-06  5.0326834143921418e-06  1.1912155109195979e-05  2.2988347222554286e-06  -3.7121500678726217e-07  6.9223835601254530e-02  -5.0953101081704914e-02  -2.1905781212014651e-06  6.3454593410259856e-06  -2.8251510410464549e-05  -1.0129157781588839e-04  -1.0064958245393266e-05  -2.2474563534327606e-06  5.0066038682496203e-04  -6.8426854381752544e-04  -1.8401401680534814e-06  3.1227668133134879e-06  2.4427784563291353e-06  -2.1153749556909442e-04  6.9075903501678005e-04  1.9206757881598062e-06  -2.3262208483152202e-07  2.0347060953650134e-05  1.4919399899206186e-04  1.8933058636574320e-06  1.8067929101343660e-05  8.8430865090290949e-03  4.2059880212968337e-01  1.3857945316008765e+01  4.1684162758609613e+00  -4.0461815002024084e-06  -1.1428566173135724e+00  1.1906679086665610e-02  5.7070996800221983e-08  2.7337486776219793e-06  1.3604560831463851e-06  4.6487957064327338e-04  2.0659965346649761e-05  2.8892137526827155e-03  -2.3594202644146896e-07  2.4694754895614204e-06  -5.6882823989037553e-04  6.4183415785163496e-03  1.8749839510742725e-06  2.9794802518210253e-06  2.5653497790250283e-03  1.1885404604412569e-01  1.0745417724582004e-01  4.9484035584392293e-06  1.9694040970417838e-06  -3.1666460935124784e-02  1.4876233037396280e-06  -1.8323243645754306e-07  9.9974248829394954e-03  4.1356518404289597e-02  1.2838510880923176e-07  -1.4904738360379336e-02  -3.0395036657100955e-05  1.8907021530080826e-06  -2.7817753360747122e-06  1.5617665422827586e-06  -5.2953541547108561e-08  5.9501141547269336e-04  3.5942612961073291e-06  -7.4677111390803960e-05  3.2059196491080903e-02  -3.8474912463463394e-05  1.7948252381829441e-01  5.5364074627004358e+00  2.0854634692609708e+00  -4.0950257179123315e+02  -3.5505183603848964e-07  -3.2705988741150802e-03  1.9903172621998476e-06  -7.5182685823371800e-03  2.8670518628771540e-06  4.4793352227031345e-05  3.1556525047659031e-06  4.4408441438027390e-03  -2.8115163212008871e-02  -2.6029182902063205e+01  -1.4463729806329690e+02  2.6138364711127851e-06  1.5844405770550747e-06  8.2860683900331999e-05  4.1867934058015930e-06  8.3889786572260965e-03  -1.0770715954055064e-06  5.9148350574385975e-03  4.0059489465571405e-06  6.4416259024567655e-06  2.0812050033342764e-04  7.7098661833671575e-03  -2.7001309161716159e-02  3.8994465359865031e-06  3.5210743049112486e-06  2.1665055535075833e-06  2.7321880362228464e-06  -2.3936812804460699e-06  -2.4413453763866872e-06  2.6784696039385561e-04  -4.9058974818987515e-06  7.1013337812359897e-02  -5.6413996638358076e-04  2.5992277822873670e-02  3.4418037029099721e-02  4.0609698869211263e-06  -2.5387541298984533e+00  2.0059612188619018e-06  1.1238102362078143e-06  1.4298572105584793e-02  -1.7499101394939223e-06  -2.7106487380844884e-07  -1.9333869118210609e-08  4.2283607453843720e-06  -7.3352596887771419e-06  -4.5857994305789543e-05  2.9041577217252206e-06  2.6105918409323010e+01  7.7305036991018541e-07  -1.7284036443567553e-08  1.0536195706526904e-05  3.6043684463256777e-06  8.9314593951094093e-07  -1.2573955940847238e-02  -6.2262871888403248e-07  6.2483502747066679e-05  5.8360456598484642e-02  4.4724316458687563e-01  2.2910085567907590e+00  1.1847999139226992e+00  3.0044334337891159e+00  4.8528193346252124e-06  -3.2536615583751527e-01  -7.2828732387049366e-01  -1.9149678352412550e-01  -7.2013267182697751e+00  -1.5681031702726266e-04  -7.7233652465922257e-05  1.2473934725823388e-02  -1.1957216014808322e-04  2.3817733565795854e-06  1.0839434072381949e-04  2.9080591834183251e+00  3.0661773543100140e-01  9.3887286447190932e-07  -1.2838724372628902e-06  1.5082231564159452e-06  3.1696731370534467e-06  3.5064155684666742e-06  2.9002090056883103e-04  -4.6929654749547400e-01  -5.9652171006463148e-07  -6.1731287233354908e-07  -1.9959276293074285e-06  -3.3312787188678063e-06  -1.1516617577104535e-06  1.5114074959561779e-02  3.0776135719723279e-06  -7.8238999168286118e-03  8.4675861238299281e-04  1.2710917987092186e-03  3.4008696827228548e-06  2.4882945124697268e-07  4.7603270792040292e-07  1.1204622311224467e-06  1.5436791267247524e-01  6.5788397565699361e-02  1.7467848339615448e-02  1.2453005030386327e-06  3.1050809384832937e-04  3.3289304512267265e-03  8.2225050200581849e-04  4.8579771754737903e-03  -3.6360843862676344e-02  3.5166378394846003e-07  2.0886512632230699e-06  -9.3767044489207668e-02  -1.6611024528176668e-02  1.1628786443424437e-06  -5.2009400796964268e-08  2.8720035629281006e-06  -6.2140443051855631e-05  -2.8219660348946516e-05  1.4410759183526985e-04  3.1921319351697185e-03  3.1872346043637012e-03  1.7261675013086734e-03  1.9650719700937066e-06  3.4420724414531829e-06  -1.7967092997965490e-06  -2.3791833426013751e+00  -2.7055364793062293e+00  3.1483354549238445e-07  6.3974567096820876e-03  6.1627237627983351e-03  5.4106604026305819e-03  2.0701789066661599e-03  8.5714857890116240e-08  8.3493404752066035e-03  1.5565826079512188e-02  5.9470559234838469e-05  2.2544547405571547e-01  3.1483321129706471e-01  1.8164397135967182e-06  1.1137171064658550e-06  3.8105305595521924e-06  9.6073554256363112e-08  -6.8846888294179279e-07  2.8279958608845892e-05  4.7578098582505697e-06  -2.5811593251444290e-02  5.5564938545606486e-06  3.5654889563938552e-06  -1.2081032023616839e-03  2.4681205898958261e-08  -1.0895599696576271e-06  -9.1099862283425519e-03  -7.6339918765036324e-03  -2.3507818706759343e-03  3.0069315630417900e-07  8.5965829819693873e-04  1.1695642095278160e-03  4.8399179353301069e-06  1.1613850778359625e-03  1.1054520334832551e-05  1.0808697063821073e-06  1.4125952310948357e-06  6.3385463089428377e-06  -1.2826159383108207e-02  5.3471373147733555e-07  4.9394942713113336e-03  2.3017283386962688e-03  2.7551743066590007e-03  6.0765461494926400e-03  -2.8575302954279906e-06  -3.3286777803675962e-07  3.8216975316699131e-06  -5.9035093407430691e-07  7.4940088959377878e-06  7.4356049339062545e-06  2.4990945373545954e-06  8.4696246340799936e-07  -2.2125113661262356e-07  3.5170891160980473e-04  3.1629181728453817e-02  1.0745276473314282e-05  4.6489859619945726e-06  -1.1029491933017200e-06  3.3393735718863350e-06  2.6718178800092298e+00  -1.7667000155580129e-06  2.1079907602333291e-06  2.4531111748863683e-06  2.0049505529069051e-06  1.6868417169928753e-06  2.8318028702713209e-06  5.4063727189515246e-06  -8.7330734969878759e-05  3.8000283961631100e-05  -2.4315375234137499e-07  4.2395386425447810e-07  -5.6144522264734711e-04  -4.5621058899937767e-04  3.6130774007639602e-07  -1.4862055148091472e-04  3.7808338332582024e-06  8.5670347163678336e-07  -3.4053288026007557e-08  2.4972442047328610e-07  -4.1880425067379196e-08  2.7514158910174842e-06  -6.9451593189158070e-06  6.5547172516727537e-01  6.1153120043824879e-08  -9.3129631170795493e-02  -7.4975879021063498e-07  -4.0934038711008009e+02  3.3191970535383601e-05  9.4007456581741785e-05  1.1973963823034444e-07  7.1368174651589150e-02  2.3844320147742604e-06  1.8148003648870568e-06  -4.5572045630474198e+00  8.7893283179317585e+00  2.5601003634370698e-06  3.6861801653676821e-06  7.2622030156703867e-04  9.0859611619214433e-03  3.6341058751667260e-06  4.0553672193854118e-06  4.4181723206973723e-06  2.9879027474230977e-06  6.9271375179824917e+00  -4.9450649057850994e-02  1.0128621132160476e-02  -1.1683135923006560e+03  -9.1604771929030971e+02  -7.5562138253625261e-02  1.1523318879562074e-03  4.1493915663331133e+00  7.0901357997236625e+00  -6.9441941470968442e-07  2.5642374268639050e-06  -6.4020894857227662e-07  -2.6522330322701755e+01  -9.0688909903401827e+02  -4.4654850865397406e-06  -3.9996327251600047e-04  6.5008714916699411e-06  3.0491419419545481e-05  2.0183093010950385e-05  -1.5352782138162942e-02  3.1208517801847879e-06  -2.2219502650550504e+00  2.8534083569879698e-01  -2.1772419755129585e-02  2.3024893823419716e-06  -3.0310580312308339e-02  -2.5271882656492480e-06  4.5265010518063262e-05  1.7642311051239508e-06  2.5244336839283273e-05  2.5245708198983209e-06  1.0231880941087086e-06  -4.3709676355901818e-06  -6.6513548530864250e-05  3.6928483382428683e-06  -1.6878686302048258e-06  -1.1753892757183720e-07  1.9463524363730170e-02  7.4614782210631018e-04  -1.4838228716115785e+02  2.3643301867631759e+00  3.4180680397593761e-02  -1.6360050770552451e-05  1.2335493619971294e-07  -7.7937837631647429e-07  2.2545827688644628e-02  1.1895721145276535e-02  -6.7979663162717199e-07  1.1431705182912386e-01  5.2369932392255425e-01  -1.4243339145561424e-07  -8.6320161334681730e-07  1.7860225287910680e-03  5.8803401032089093e-04  -5.3989325799947242e-07  3.1926661577045330e+01  9.2821125456337250e-01  -1.5949073916644666e-06  9.1223701602915648e-05  1.8568832365679087e-05  -8.6983845310805532e-07  2.9211537600483069e-07  -3.3686531963367406e-06  -1.3663245972933458e-05  9.1968027846313523e-05  -1.6492375277466292e-05  3.2636962738519065e-06  -2.1469160112949922e-06  1.8013600780450491e-06  9.0362966270901702e-07  -3.8294021405132616e-03  -1.7883666929837247e-03  -5.5672383424188836e-03  -6.6861032669770678e-07  5.3186906143604808e-06  -1.0383860898802876e-07  3.8655438807164169e-02  -7.2099424343156068e-06  -1.4279654151576340e-06  3.3249872705204190e-07  -8.1536951966136428e+01  8.1712570137787001e-07  6.2600082165763311e+00  2.5879908667208218e-01  -6.4607314917356786e-04  5.0884065037922001e-07  -4.2619141369843430e-05  4.1211771909872545e-07  1.4913409532933122e-01  -3.1662000297975651e-01  2.6605372048077666e-02  -2.9152751998754778e-01  1.9546941378799569e-03  1.0005504412613562e-06  3.3758443563708123e-06  2.3540970564665021e-06  9.3924250719825811e-06  -9.0854095360176468e-02  5.4573021849174241e-03  3.5373468184632180e-06  -9.7111827375074214e-05  -1.9583501123934797e-07  9.6203382814056147e-07  1.4153576440196010e+01  1.0452697430241581e-05  4.3523601416964273e-06  -4.3425023759814900e+00  -5.1486756617881726e+00  -1.3062364648341360e-06  1.6595154245935799e+01  -1.8176714554316885e-06  -2.7636123184953836e-02  -3.0208220281843740e-05  4.9100409966572616e-07  -1.2966803509325359e-05  1.3852022122075240e-03  1.9015465722085612e-06  1.1529581592914802e+00  2.6390496055038579e-06  2.7055181443598077e-06  -7.7526644418847738e-07  -2.0054798939704971e-03  -7.7449238932541919e-01  1.8628366809449333e-04  3.8295827641829290e-07  -1.4923061674148626e-05  -2.0950081465779449e-06  2.7513076648457591e-06  1.1825023798595677e-05  -3.7983724295982268e-07  5.8939934610731728e-03  1.6042006058190027e-06  2.1850313625027418e-01  -2.2548139437895243e-06  1.6038306374511473e+00  2.1457526159359303e-06  4.2897097561208457e-03  2.1984143688717509e-03  1.8000846669167679e-06  -1.6275130996339167e-07  -1.9643553901307943e-05  6.6394190996365958e-04  -2.2045387121945957e-06  7.7044731165876498e-02  4.8970382164101033e-06  2.1343348709452927e-06  3.0222322966220837e-04  -