<?xml version="1.0"?>
<VTKFile type="UnstructuredGrid"  version="0.1"  >
<UnstructuredGrid>
<Piece  NumberOfPoints="2834" NumberOfCells="4927">
<Points>
<DataArray  type="Float64"  NumberOfComponents="3"  format="ascii">-20 2 0  -20 0 0  -1 0 0  -0.9996988186962042 0.02454122852291233 0  -0.9987954562051724 0.04906767432741797 0  -0.9972904566786902 0.07356456359966773 0  -0.9951847266721968 0.09801714032956083 0  -0.99247953459871 0.1224106751992163 0  -0.989176509964781 0.1467304744553618 0  -0.9852776423889412 0.1709618887603012 0  -0.9807852804032304 0.1950903220161286 0  -0.9757021300385285 0.21910124015687 0  -0.970031253194544 0.2429801799032641 0  -0.9637760657954398 0.2667127574748985 0  -0.9569403357322088 0.2902846772544624 0  -0.9495281805930367 0.3136817403988914 0  -0.9415440651830207 0.3368898533922203 0  -0.9329927988347388 0.3598950365349883 0  -0.9238795325112867 0.3826834323650899 0  -0.9142097557035307 0.4052413140049899 0  -0.9039892931234433 0.427555093430282 0  -0.8932243011955152 0.4496113296546069 0  -0.8819212643483549 0.4713967368259979 0  -0.8700869911087113 0.4928981922297841 0  -0.857728610000272 0.5141027441932218 0  -0.8448535652497071 0.5349976198870972 0  -0.8314696123025453 0.5555702330196022 0  -0.8175848131515836 0.5758081914178454 0  -0.8032075314806448 0.5956993044924335 0  -0.7883464276266062 0.6152315905806269 0  -0.773010453362737 0.6343932841636455 0  -0.7572088465064846 0.6531728429537766 0  -0.7409511253549589 0.6715589548470186 0  -0.7242470829514668 0.6895405447370671 0  -0.7071067811865475 0.7071067811865476 0  -0.6895405447370669 0.7242470829514669 0  -0.6715589548470184 0.740951125354959 0  -0.6531728429537765 0.7572088465064847 0  -0.6343932841636454 0.7730104533627371 0  -0.6152315905806267 0.7883464276266063 0  -0.5956993044924334 0.8032075314806449 0  -0.5758081914178453 0.8175848131515837 0  -0.555570233019602 0.8314696123025455 0  -0.534997619887097 0.8448535652497072 0  -0.5141027441932217 0.8577286100002721 0  -0.492898192229784 0.8700869911087115 0  -0.4713967368259977 0.881921264348355 0  -0.4496113296546067 0.8932243011955152 0  -0.4275550934302819 0.9039892931234434 0  -0.4052413140049897 0.9142097557035307 0  -0.3826834323650897 0.9238795325112867 0  -0.3598950365349882 0.9329927988347388 0  -0.3368898533922199 0.9415440651830208 0  -0.3136817403988914 0.9495281805930367 0  -0.2902846772544622 0.9569403357322089 0  -0.2667127574748983 0.9637760657954398 0  -0.2429801799032639 0.970031253194544 0  -0.2191012401568697 0.9757021300385286 0  -0.1950903220161282 0.9807852804032304 0  -0.1709618887603012 0.9852776423889412 0  -0.1467304744553616 0.989176509964781 0  -0.1224106751992162 0.99247953459871 0  -0.09801714032956065 0.9951847266721969 0  -0.07356456359966733 0.9972904566786902 0  -0.04906767432741801 0.9987954562051724 0  -0.02454122852291214 0.9996988186962042 0  6.123233995736766e-17 1 0  0.02454122852291226 0.9996988186962042 0  0.04906767432741813 0.9987954562051724 0  0.07356456359966745 0.9972904566786902 0  0.09801714032956077 0.9951847266721968 0  0.1224106751992163 0.99247953459871 0  0.1467304744553617 0.989176509964781 0  0.1709618887603014 0.9852776423889412 0  0.1950903220161283 0.9807852804032304 0  0.2191012401568698 0.9757021300385286 0  0.242980179903264 0.970031253194544 0  0.2667127574748984 0.9637760657954398 0  0.2902846772544623 0.9569403357322089 0  0.3136817403988916 0.9495281805930367 0  0.3368898533922201 0.9415440651830208 0  0.3598950365349883 0.9329927988347388 0  0.3826834323650898 0.9238795325112867 0  0.4052413140049899 0.9142097557035307 0  0.4275550934302822 0.9039892931234433 0  0.4496113296546066 0.8932243011955153 0  0.4713967368259978 0.8819212643483549 0  0.4928981922297841 0.8700869911087113 0  0.5141027441932217 0.8577286100002721 0  0.5349976198870973 0.844853565249707 0  0.5555702330196023 0.8314696123025452 0  0.5758081914178453 0.8175848131515837 0  0.5956993044924335 0.8032075314806448 0  0.6152315905806268 0.7883464276266062 0  0.6343932841636455 0.773010453362737 0  0.6531728429537768 0.7572088465064845 0  0.6715589548470183 0.7409511253549591 0  0.6895405447370669 0.7242470829514669 0  0.7071067811865476 0.7071067811865475 0  0.724247082951467 0.6895405447370668 0  0.7409511253549591 0.6715589548470183 0  0.7572088465064846 0.6531728429537768 0  0.773010453362737 0.6343932841636455 0  0.7883464276266063 0.6152315905806268 0  0.8032075314806449 0.5956993044924334 0  0.8175848131515837 0.5758081914178453 0  0.8314696123025452 0.5555702330196022 0  0.8448535652497071 0.5349976198870972 0  0.8577286100002721 0.5141027441932217 0  0.8700869911087115 0.492898192229784 0  0.881921264348355 0.4713967368259976 0  0.8932243011955153 0.4496113296546065 0  0.9039892931234433 0.4275550934302821 0  0.9142097557035307 0.4052413140049899 0  0.9238795325112867 0.3826834323650898 0  0.932992798834739 0.3598950365349881 0  0.9415440651830208 0.3368898533922201 0  0.9495281805930367 0.3136817403988915 0  0.9569403357322088 0.2902846772544623 0  0.9637760657954398 0.2667127574748984 0  0.970031253194544 0.2429801799032639 0  0.9757021300385286 0.2191012401568698 0  0.9807852804032304 0.1950903220161282 0  0.9852776423889412 0.1709618887603012 0  0.989176509964781 0.1467304744553617 0  0.99247953459871 0.1224106751992162 0  0.9951847266721969 0.0980171403295606 0  0.9972904566786902 0.07356456359966743 0  0.9987954562051724 0.04906767432741801 0  0.9996988186962042 0.02454122852291229 0  1 0 0  20 0 0  20 2 0  0 2 0  -10 2 0  10 2 0  -10.5 0 0  -5 2 0  10.5 0 0  5 2 0  -15 2 0  -5.75 0 0  -2.5 2 0  15 2 0  5.75 0 0  2.5 2 0  -15.25 0 0  -3.375 0 0  15.25 0 0  3.375 0 0  -17.625 0 0  -17.5 2 0  17.5 2 0  17.625 0 0  8.125 0 0  7.5 2 0  12.875 0 0  12.5 2 0  -12.5 2 0  -12.875 0 0  -8.125 0 0  -7.5 2 0  -18.75 2 0  -18.8125 0 0  18.75 2 0  18.8125 0 0  16.4375 0 0  16.25 2 0  -16.25 2 0  -16.4375 0 0  13.75 2 0  -14.0625 0 0  -13.75 2 0  -11.6875 0 0  11.6875 0 0  -9.3125 0 0  8.75 2 0  -8.75 2 0  6.9375 0 0  6.25 2 0  -6.9375 0 0  -6.25 2 0  9.3125 0 0  11.25 2 0  -11.25 2 0  3.75 2 0  4.5625 0 0  -4.5625 0 0  -3.75 2 0  -1.25 2 0  1.25 2 0  14.0625 0 0  2.1875 0 0  -2.1875 0 0  -20 1 0  20 1 0  18.21875 0.982421875 0  -18.21875 0.982421875 0  16.875 1.0498046875 0  -17.03125 0.966796875 0  -15.84375 0.953125 0  15.625 1.0625 0  14.375 1.0732421875 0  -14.375 1.0732421875 0  1.830289387965117 1.052284088108649 0  -1.830289387965117 1.052284088108649 0  -3.125 1.08203125 0  -13.28477656888586 1.012129001112436 0  13.125 1.08203125 0  3.125 1.08203125 0  -4.375 1.0888671875 0  11.875 1.0888671875 0  -11.875 1.0888671875 0  4.203765290519877 1.0193030867737 0  -5.625 1.09375 0  5.625 1.09375 0  10.625 1.09375 0  -10.80634835916782 1.025744365312066 0  9.375 1.0966796875 0  -6.875 1.0966796875 0  -9.375 1.0966796875 0  6.684990875912408 1.03136405109489 0  -8.322099415573495 1.036062682633283 0  8.125 1.09765625 0  19.11075969939671 0.8508947319664032 0  -19.11075969939671 0.8508947319664032 0  -7.53125 0 0  8.71875 0 0  7.423362102206937 0.6655467048188293 0  9.90625 0 0  -6.34375 0 0  -10.07209987056368 0.6864155791813131 0  -5.15625 0 0  4.932893941568688 0.70313517104756 0  11.09375 0 0  -3.96875 0 0  12.28125 0 0  -12.56167362378033 0.7158719711052053 0  -15.12789358749343 1.239622257084254 0  19.375 2 0  -19.375 2 0  -7.586458743762512 0.7777256637040587 0  -8.876841588719831 0.5749490497356908 0  -2.78125 0 0  13.46875 0 0  2.486351124110562 0.6882204272146759 0  -2.484375 0.6875496078884429 0  13.765625 0.6685592193186988 0  6.127605163798639 0.5971727330055587 0  0.625 2 0  -0.625 2 0  -1.146535794159178 1.28513409566998 0  1.146535794159178 1.285134095669981 0  14.65625 0 0  14.953125 0.6512707752786624 0  -14.87682753143027 0.5890664696931456 0  12.578125 0.6384885491877257 0  -3.671875 0.6384885491877257 0  -15.625 2 0  -11.36675239212577 0.6158089665857418 0  15.00271470412651 1.324726469417674 0  17.53235848397354 0.7266244978817956 0  11.390625 0.6116981677410314 0  -4.859375 0.6116981677410314 0  15.84375 0 0  16.140625 0.6148897058823529 0  7.497593266890831 1.330710907262048 0  13.76254792112057 1.334335181755445 0  -10.20969602084016 1.352738855957021 0  17.03125 0 0  3.639986821556412 0.6311208834101457 0  -2.422032960990368 1.344610008595471 0  -1.875 2 0  2.42168763602468 1.344854035092462 0  1.875 2 0  -6.046875 0.5879464285714285 0  10.203125 0.5879464285714285 0  4.785027294216357 1.360955117010924 0  -16.43327865604348 1.32661481258014 0  -16.44139997701004 0.663326532427168 0  -12.71719161438206 1.366886164755866 0  9.015625 0.567039754702805 0  -13.85227446991684 0.6433291643838606 0  17.68435132148515 1.367585767263021 0  -8.125 2 0  -7.779164034427432 1.405551895778211 0  6.875 2 0  -16.875 2 0  16.25211206745888 1.264109755085799 0  -3.748868614850469 1.292331074664245 0  12.50113138514953 1.292331074664245 0  -4.999425840599162 1.238293400364507 0  11.25057415940084 1.238293400364507 0  10.00021284174179 1.186027320246887 0  -6.249787158258211 1.186027320246887 0  8.750028772491092 1.133996757348608 0  8.125 2 0  -9.375 2 0  -6.875 2 0  9.375 2 0  10.625 2 0  5.625 2 0  -5.625 2 0  -11.875 2 0  11.875 2 0  -4.375 2 0  3.125 2 0  13.125 2 0  -14.375 2 0  14.375 2 0  15.625 2 0  -18.125 2 0  16.875 2 0  -3.125 2 0  -10.625 2 0  4.375 2 0  -13.125 2 0  18.125 2 0  -17.62042339570457 1.322431301452557 0  -17.64048254773117 0.661277151197267 0  -1.59375 0 0  1.59375 0 0  -19.40625 0 0  19.40625 0 0  20 0.5 0  19.0625 1.466926268772181 0  -18.7305243036722 1.362703047674974 0  -5.451064633443578 0.5209722999527524 0  10.79893536655642 0.5209722999527524 0  9.610417111950763 0.5183010867631196 0  -13.46875 0 0  3.96875 0 0  -11.09375 0 0  6.34375 0 0  2.78125 0 0  -8.71875 0 0  -12.28125 0 0  5.15625 0 0  -9.90625 0 0  7.53125 0 0  -15.84375 0 0  -17.03125 0 0  -18.21875 0 0  18.21875 0 0  -14.65625 0 0  20 1.5 0  -19.48071156660626 1.370757229128913 0  -20 0.5 0  -4.24552725411087 0.5169543671041
[...]
<PointData  Scalars="f_6829367"> 
<DataArray  type="Float64"  Name="f_6829367"  format="ascii">1.0532671243159573e+00  1.0414741235201421e+00  1.0762041220159972e+00  1.0877862636007061e+00  1.1260191366255698e+00  1.1919466946969077e+00  1.3302663714549476e+00  1.4527573943563474e+00  1.6702138939526359e+00  1.8287603326056492e+00  2.0717450153763850e+00  2.4041073331719449e+00  2.7422763689781413e+00  3.1396048490119681e+00  3.6202269291314662e+00  4.2303318714413178e+00  4.9038630436090447e+00  5.5858420136512059e+00  6.7474582240105434e+00  7.7022362195405512e+00  8.7108887228958647e+00  1.0401127965618381e+01  1.2081227538477295e+01  1.3740155253451114e+01  1.5931999835353713e+01  1.9246035114787794e+01  2.1876942977529819e+01  2.4594013680701757e+01  2.7963573350836729e+01  3.3357097514787391e+01  3.6973829366895515e+01  4.1891844995027050e+01  5.3525969547660395e+01  6.0489389512948776e+01  7.0529821798928509e+01  8.1620829966853549e+01  9.6770250138421702e+01  1.1063183482499386e+02  1.3558909213330278e+02  1.5420237469694075e+02  1.7739718840751993e+02  2.1352671829535794e+02  2.3249984127906890e+02  2.5587599614406000e+02  3.1098310126037188e+02  3.5951758025204396e+02  3.7736476107979519e+02  4.8326616300399013e+02  5.4855093602324246e+02  6.2662178833524990e+02  6.8422056713659128e+02  7.5401247606707386e+02  8.7929334238392880e+02  9.7017945129998543e+02  1.0928589636708323e+03  1.1438344645578775e+03  1.2136460872464311e+03  1.3164932651411627e+03  1.4558835511932539e+03  1.6812216123971746e+03  1.8154554804032298e+03  1.8610990757159836e+03  2.0137288550584124e+03  2.0274944830259694e+03  2.0873269306509442e+03  2.0210079879202706e+03  2.2233446272185593e+03  2.0880541057879586e+03  1.8600748562249082e+03  1.5817373308016904e+03  1.4932233319243949e+03  1.5961509913019222e+03  1.4270673936860157e+03  1.3117328964226479e+03  1.1944340391142161e+03  1.0015997246233107e+03  7.9576843061556974e+02  6.7932297448059558e+02  6.3447878378819075e+02  5.8995299805111495e+02  4.8586202795575929e+02  3.8136054932462923e+02  2.8088615460471146e+02  2.4208651295053690e+02  1.7681684346467716e+02  1.6023326278785444e+02  1.1888689859462531e+02  9.1343645503862092e+01  6.0401141068018070e+01  5.4557988319432297e+01  3.6049048676007118e+01  2.7110183840088776e+01  1.6889478760432034e+01  7.2139221171659216e+00  2.2739621745810723e+00  1.4948744739029143e+00  -1.0127869789321320e+00  -5.8800061010089095e+00  -4.2623648701668033e+00  -3.1232250790005938e+00  -3.3571986894837833e+00  -1.9193944905102891e+00  2.0934785772216191e-01  2.5614667497077814e+00  3.2680777224775319e+00  5.8638940933424477e+00  8.2123561558476013e+00  1.0497003674994033e+01  1.2681142092199071e+01  1.2965379200937782e+01  1.4897556108666532e+01  1.6786976413554392e+01  1.6195075211970227e+01  1.7011934386589761e+01  1.6370709796995413e+01  1.5593841066204707e+01  1.4591764216534502e+01  1.2227929888205997e+01  1.0396162892921783e+01  8.8162099025506429e+00  6.6950369534239256e+00  5.2989044486048424e+00  4.1568023480240539e+00  3.1809544807564749e+00  2.2139184793250912e+00  1.7365787578561895e+00  1.3692121352157114e+00  1.1072157583854547e+00  9.6914033377300324e-01  8.2278096269852163e-01  8.5214912989250013e-01  9.9999686670374421e-01  9.9999901892436271e-01  1.1106325436948232e+03  9.9999910639722212e-01  1.0000000582541797e+00  1.0000026731013074e+00  9.9951005876710497e-01  1.0000007678808815e+00  1.0001662474181963e+00  1.0000002829964481e+00  1.0006136887539516e+00  9.7563341952650906e-01  1.0000005896779540e+00  9.9961801391340499e-01  1.1018872115230753e+00  9.9995558494736247e-01  1.1134613775927746e+00  1.0000011052296538e+00  9.1468676696916373e-01  9.9838662561652991e-01  1.0001501914526529e+00  1.0000005113981656e+00  9.9999962818455912e-01  1.0000025551764746e+00  9.9999935856613531e-01  9.9999982964691470e-01  1.0000007681004279e+00  1.0000004952914396e+00  9.9999782389674596e-01  9.9999875549115813e-01  9.9999998846091709e-01  1.0021435737012165e+00  9.9951365544879534e-01  1.0000002149993572e+00  9.9999722634417254e-01  1.0000010379348390e+00  1.0000007907702415e+00  1.0000022366447399e+00  9.9957456850369109e-01  1.0000000525075445e+00  9.9999632593075194e-01  9.9999997156177156e-01  1.0000007912216782e+00  1.0000026260572217e+00  1.0000026332133019e+00  9.9999986273921848e-01  1.0000005895808690e+00  9.9999674767114310e-01  9.9998130196274204e-01  1.0000267129475473e+00  1.0000041364609635e+00  1.0000002329707633e+00  9.9999916286530410e-01  9.9999901008532988e-01  1.0074983108605695e+00  9.9070269129641630e-01  1.0095145147104236e+00  9.9014695963887911e-01  4.0785870876015347e+00  1.4621377330615320e+02  9.9999609019511149e-01  6.2500015397108122e-01  2.3583501365253281e+00  1.0624612200461649e+00  9.9999658832643534e-01  9.9999826603577002e-01  1.0021602919365973e+00  9.9999657705712286e-01  1.0003444617022574e+00  1.0000598568295935e+00  9.9999514000290313e-01  9.9999712252164041e-01  1.0000055882940244e+00  6.0060193215581155e+00  1.7516946536157600e+00  9.8403300296195806e-01  9.9999898771703932e-01  9.9999947401416311e-01  1.1839955670461946e+00  9.9614883123507603e-01  9.9999480324809464e-01  9.9999574601387753e-01  1.0229538330989181e+00  9.9982274483305400e-01  1.0015857450852279e+00  9.9999395029891269e-01  9.9999579115214554e-01  9.9999619165058273e-01  9.9999567451932647e-01  9.9999705835399400e-01  1.0001096447564857e+00  1.0000009881716021e+00  1.0000014998856499e+00  9.9999865247862352e-01  1.0221447681415843e+00  1.0000057330790726e+00  1.0000004983424986e+00  1.0000024144180808e+00  9.9999819352801611e-01  1.0001165560971848e+00  1.0000006304729256e+00  1.0024218140777579e+00  9.9989452417340929e-01  1.0000005457281824e+00  1.0322624315290092e+00  1.0000002080173407e+00  9.9999887723033187e-01  1.0000434265116995e+00  9.9999918360579443e-01  9.8983701771580856e-01  1.0000015095849166e+00  1.0000018944170452e+00  1.4142072819139575e+00  9.9999762246379531e-01  9.6845969408588484e-01  1.2788724746494347e+00  9.9999688474385628e-01  9.9995637464216558e-01  7.8283836678710634e+02  9.0141969711575896e+01  5.8979342605624385e+00  1.1014473017504562e+02  9.9999942256701502e-01  9.9999762260162472e-01  9.9998803154641147e-01  9.9999762590851782e-01  1.0118940950273074e+00  1.0000193496844560e+00  9.9999841897857455e-01  9.9999584643697270e-01  9.9999874620798468e-01  9.9999786386060419e-01  1.0006820490042889e+00  1.0000009639110159e+00  9.9999766608694141e-01  1.0000149106820935e+00  9.9999803998783998e-01  9.9999484535643590e-01  1.0000007314046386e+00  9.9647271236701973e-01  1.0102820647608242e+00  1.0550794362850646e+00  2.1495392005488201e+00  4.8450396355908731e+00  1.0000547612575055e+00  9.9999942781818252e-01  1.0114863142507680e+00  1.0006152916802338e+00  9.9979457129432492e-01  9.9999540929296105e-01  9.9999565506195909e-01  9.9999833605226462e-01  9.9999862250206162e-01  1.0000011507570412e+00  9.9999806197597940e-01  1.0000053460850029e+00  1.0002527865175073e+00  9.9999595037209543e-01  9.8273823978708952e-01  9.9999797688116010e-01  9.9892083297260759e-01  9.9999568821933993e-01  9.9999422407981220e-01  9.9997030147969623e-01  9.9999795171172878e-01  9.9999914967337133e-01  1.0000024906307039e+00  1.0000014017579753e+00  9.9999940253863551e-01  1.0000004605890940e+00  1.0000877775762405e+00  9.9989893705408461e-01  1.0000000892801109e+00  9.9999901805176072e-01  9.9827720691251043e-01  9.9533773398952918e-01  9.9999899390295488e-01  9.9999736849822651e-01  9.9999986518447093e-01  1.0000005264565854e+00  1.0012130135050201e+00  1.0000000874553108e+00  9.6742619436450683e-01  9.9999947092899610e-01  1.0005699943344464e+00  9.9999949305076097e-01  1.0000007199103742e+00  1.0029513314910949e+00  9.9904491924470162e-01  5.0283617538777943e+00  4.0216366236614060e-01  1.0029240816997145e+00  9.9999738353899381e-01  9.9999363535351216e-01  9.9999659217552006e-01  1.0071933781341642e+00  1.0003505349360362e+00  9.9999853083219148e-01  9.9999721684884191e-01  9.9999724249466404e-01  9.7301698438210804e-01  1.0000013743215450e+00  9.9995408455117885e-01  8.3007920653593448e-01  9.9999945661388945e-01  9.9999903333366791e-01  9.9802147383624884e-01  1.0000014180322638e+00  1.0000055464653621e+00  9.9985275135980178e-01  9.9896554320989150e-01  9.9859980141356020e-01  9.9999903378094124e-01  9.9998754512881038e-01  9.9999545532305523e-01  1.0387555394852566e+00  1.0643622227921825e+00  1.0078455253724099e+00  9.9999868823680060e-01  9.9999872327108419e-01  1.0037683767969929e+00  9.9999716010320916e-01  9.9999969901814456e-01  9.9999855472973342e-01  9.9999642232465735e-01  1.1159043305733902e+00  9.0121189170335725e-01  4.4152776239824796e+00  2.8947773281740621e+00  9.9999941004720594e-01  9.9991664889971044e-01  9.9999960229954432e-01  9.9999784807082415e-01  1.1320294934286110e+00  9.3439358178508564e+02  2.4309296062351063e+02  9.9999323045023836e-01  9.9999420627286750e-01  1.0034845654057285e+00  9.9908638203299305e-01  1.0007793619987733e+00  9.9999699449486246e-01  1.0000237451065617e+00  9.9999557265636874e-01  1.0000024873080222e+00  9.9999487625816363e-01  9.9999668063247593e-01  9.9999882525219153e-01  9.9999803810955468e-01  9.8174263733072908e-01  1.0529551383295968e+00  1.0000020778152561e+00  9.9999346278832635e-01  1.0000148973404590e+00  1.0002071935719599e+00  1.0000010549793030e+00  9.9999954906346222e-01  9.9993853809872713e-01  1.0002069171529844e+00  1.0000018078501940e+00  9.9999666833064982e-01  9.9999731686552218e-01  1.0000533598935899e+00  1.0017668572645768e+00  9.9999801871573102e-01  9.9999926547753104e-01  9.9999532884543618e-01  9.9994652166985831e-01  9.9999762938598558e-01  9.9999552718079820e-01  1.0053340253826639e+00  1.8129641401515209e+00  1.9958344643627409e+01  5.5444814404909948e-01  1.0000014963933317e+00  2.0858252108278634e+00  1.0574308294836339e+00  9.9999982700496082e-01  9.9999706544021127e-01  9.9999831532468408e-01  9.9990253152973219e-01  9.9999845836133916e-01  9.9915816741781649e-01  1.0000001208400440e+00  9.9999746390347533e-01  1.0004300873922773e+00  9.9956906336826723e-01  9.9999778968577480e-01  9.9999662311555204e-01  9.9921412563217982e-01  1.4166549124377859e+00  9.7250663819623939e-01  9.9999485568951685e-01  9.9999805353101290e-01  1.0420627641282516e+00  9.9999834975959179e-01  1.0000000575813399e+00  9.9651786421276511e-01  9.8802907245453253e-01  9.9999975732446333e-01  1.0774819018148400e+00  1.0000036581668994e+00  9.9999780114465142e-01  1.0000011865195177e+00  9.9999800883366441e-01  9.9999983702562356e-01  9.9981446114461636e-01  9.9999616907684308e-01  1.0000790818885503e+00  1.0036654349624872e+00  1.0000316183640767e+00  1.2250014818622807e+00  5.1833134829521246e+00  1.0028463688425775e+01  5.8048728895649742e+02  1.0000001179848204e+00  1.0034654285422930e+00  9.9999804567855344e-01  1.0162596002591033e+00  9.9999700672882819e-01  1.0000337038269507e+00  9.9999669703956484e-01  9.9846493280503279e-01  1.0527179218452642e+00  3.6029997043062032e+01  4.1343319638923862e+02  9.9999718333677945e-01  9.9999819833868098e-01  9.9999188966296060e-01  9.9999561531089176e-01  1.0004135802943170e+00  1.0000010129603416e+00  9.9759112029139163e-01  9.9999574226283683e-01  9.9999339895827088e-01  9.9999366144704227e-01  1.0074265223454044e+00  1.0259542044027368e+00  9.9999570367437052e-01  9.9999780961144435e-01  9.9999651902016895e-01  9.9999711535005131e-01  1.0000021756815589e+00  1.0000022678703844e+00  1.0008752660717235e+00  1.0000072844989203e+00  1.0065308967790481e+00  1.0089283190388860e+00  9.9544386911619587e-01  9.9203706434236238e-01  9.9999563790403800e-01  4.0721745578282560e+00  9.9999779861476290e-01  9.9999944895497861e-01  1.0130068701802191e+00  1.0000017234589897e+00  9.9999969915783826e-01  9.9999950702854268e-01  9.9999573132476460e-01  1.0000130184260951e+00  1.0000315831908397e+00  9.9999700790871104e-01  3.7497881944691670e+01  9.9999917718407705e-01  1.0000002060640274e+00  9.9999602072643901e-01  9.9999605532920044e-01  9.9999895013617746e-01  1.0010068324716550e+00  1.0000003050383712e+00  9.9999586894677783e-01  1.0080818265968463e+00  1.3372378742771447e+00  4.9767636922930159e-01  7.0074459983523740e-01  1.4936782765715133e+00  9.9999819734473638e-01  1.2484644070689443e+00  1.6198303514415133e+00  1.3012427388642160e+00  8.6528405206274730e+00  9.9999291975140725e-01  1.0001266539485378e+00  9.9686110207665313e-01  1.0000129168916934e+00  9.9999742811199388e-01  1.0000151190942690e+00  2.1896277454503870e+00  9.2343681813580847e-01  9.9999891425442167e-01  1.0000002746275720e+00  9.9999831475006695e-01  9.9999655347310079e-01  9.9999618703073923e-01  1.0010725598446417e+00  2.3592131057943959e+01  1.0000003997998768e+00  1.0000004142112182e+00  1.0000018751482507e+00  1.0000030595814733e+00  1.0000008995895391e+00  1.0060980567031987e+00  9.9999699292336908e-01  1.0114628797148755e+00  1.0002320496066421e+00  9.9966931500649969e-01  9.9999631683464263e-01  9.9999968242275639e-01  9.9999939091568979e-01  9.9999880252934270e-01  9.5248134084301439e-01  9.9770398906319668e-01  9.9767945166012528e-01  9.9999861926130418e-01  1.0000545525889162e+00  9.9941084988127127e-01  1.0003901688343104e+00  1.0043022593620499e+00  1.0238152182382121e+00  9.9999939691975459e-01  9.9999763144261311e-01  1.0644624698578513e+00  1.0150563768767815e+00  9.9999862250128735e-01  9.9999987712314176e-01  9.9999706706149505e-01  1.0003772715536685e+00  1.0002995722924046e+00  9.9995407781309997e-01  9.9939627796707564e-01  1.0006200894160651e+00  1.0009752893045589e+00  9.9999789447687293e-01  9.9999644233514406e-01  1.0000018156844834e+00  3.0800180775021020e+00  3.4575695436752292e+00  9.9999947349909024e-01  9.9805252735324890e-01  9.9825941050837641e-01  1.0035236562294809e+00  1.0027070907726967e+00  9.9999926002443640e-01  9.9881556453996534e-01  9.9958170771395516e-01  9.9998254239719364e-01  1.0174061736012512e+00  9.0182553071405314e-01  9.9999913918676564e-01  9.9999869664610230e-01  9.9999594408110948e-01  9.9999968738664580e-01  1.0000005788450670e+00  9.9999712275539199e-01  9.9999748463159621e-01  1.0146672181117187e+00  9.9999440310676435e-01  9.9999618655717148e-01  1.0006757361207792e+00  9.9999975866728430e-01  1.0000009214616927e+00  1.0058245596419495e+00  1.0052246823959918e+00  1.0014500734612726e+00  9.9999956381169020e-01  9.9974429215066629e-01  9.9958714359570233e-01  9.9999493854266164e-01  9.9970289678270607e-01  9.9999583152362670e-01  1.0000022092703433e+00  9.9999817151303994e-01  9.9999355900067932e-01  1.0056398747787305e+00  9.9999941615714505e-01  1.0012429820645554e+00  9.9926966438091147e-01  1.0003790555663679e+00  1.0004392795781278e+00  1.0000028115769604e+00  1.0000001518494543e+00  9.9999556932155331e-01  1.0000006253004965e+00  9.9999548170382979e-01  9.9999864739537614e-01  1.0000004443522332e+00  9.9999890200015029e-01  1.0000000321500766e+00  1.0000835591118251e+00  1.0263468285812640e+00  1.0000006767405774e+00  9.9999498905202655e-01  1.0000009619481420e+00  9.9999644509374197e-01  2.9947999057385664e+00  1.0000017990675774e+00  9.9999772188710423e-01  9.9999739396718712e-01  9.9999796151262221e-01  9.9999818503866456e-01  9.9999708027768297e-01  9.9999440000974094e-01  1.0000457499773689e+00  1.0000042035224357e+00  1.0000002971523563e+00  9.9999974672520398e-01  1.0003487729844149e+00  1.0003110035996867e+00  9.9999991291963020e-01  1.0001003647198681e+00  9.9999623569407636e-01  9.9999893501916837e-01  1.0000001162469874e+00  9.9999965898398080e-01  9.9999998793759415e-01  9.9999704200208750e-01  1.0000014201750089e+00  1.0132228656685107e+00  9.9999966363469994e-01  1.0674444964552601e+00  1.0000002359921178e+00  5.2533327263600302e+02  9.9998358971565848e-01  9.9997705148058436e-01  9.9999972651864499e-01  9.7247478261058395e-01  9.9999749185329756e-01  9.9999807565523446e-01  5.0552606986164177e+00  3.9695346116200286e-01  9.9999705351985624e-01  9.9999603614806043e-01  9.9967212423647511e-01  9.9780511396844906e-01  9.9999616055331408e-01  9.9999646462657266e-01  9.9999575383511818e-01  9.9999823303059066e-01  1.5667647748257973e+01  1.0886542552351726e+00  1.0050125852196847e+00  1.3708003296929480e+03  1.3870518329206495e+03  1.0912604264338031e+00  9.9980640875789650e-01  5.1455285786901539e-01  2.9113000309857345e-01  1.0000005469432880e+00  9.9999788934094824e-01  1.0000004268113307e+00  5.3392396895480523e+01  1.1420948147717236e+03  1.0000007188431048e+00  1.0000622343737509e+00  9.9999334088307790e-01  9.9999266130715192e-01  9.9999348256647691e-01  1.0045232660941312e+00  9.9999635201701298e-01  6.9529356948335050e+01  4.2436990833328183e+00  1.1982407878139327e+00  9.9999749130663595e-01  1.4510888907558825e+00  9.9999985148714599e-01  9.9998665963255495e-01  9.9999812853537784e-01  1.0000094308028851e+00  9.9999722540379210e-01  9.9999819722263461e-01  1.0000038926920594e+00  1.0000060931611212e+00  9.9999596724445949e-01  9.9999996884827347e-01  9.9999968105193071e-01  9.9965172964005777e-01  1.0000704880705051e+00  4.9540521938355664e+02  1.9411490597402555e+01  1.0035149825716332e+00  1.0000076672781757e+00  9.9999948389634452e-01  1.0000005692739915e+00  1.0072343329925888e+00  9.9585800588810702e-01  1.0000006419615481e+00  9.6661865990227003e-01  1.0394794442755111e+00  9.9999993274236809e-01  1.0000006560495829e+00  1.0003063267984091e+00  9.9984263374434135e-01  1.0000002950062001e+00  3.6544713303066729e+01  1.5128712470133929e+00  1.0000008922994277e+00  1.0000088539053893e+00  9.9999681926018447e-01  9.9999961509207402e-01  9.9999980498534946e-01  9.9999976407347990e-01  1.0000010883440371e+00  1.0000311706358296e+00  1.0000008732154975e+00  9.9999665673439764e-01  1.0000021220349580e+00  9.9999821003823985e-01  1.0000005286422351e+00  1.0019936039593376e+00  9.9995095616584895e-01  9.9986725502498308e-01  1.0000002068298468e+00  9.9999436541694731e-01  9.9999984167753675e-01  1.0044974652907335e+00  1.0000001277757216e+00  1.0000013083829900e+00  9.9999920135487064e-01  2.5257537797158554e+02  9.9999872439200954e-01  1.4534539719238457e+00  1.0050600701749390e+00  1.0000198204483564e+00  9.9999932919481371e-01  1.0000000135712206e+00  9.9999946241753046e-01  9.7363236995956370e-01  2.0709865185544745e+00  9.9731910574975080e-01  1.2246966003250457e+00  9.9936601252449841e-01  9.9999881236403920e-01  9.9999626078598547e-01  9.9999723724994360e-01  9.9999537574479680e-01  1.0927288244584334e+00  9.9711592577105301e-01  9.9999633469035287e-01  1.0000645659258152e+00  9.9999993567468026e-01  9.9999870950072278e-01  6.1061694140103195e-01  1.0000003661317054e+00  9.9999532133148161e-01  4.8941090358412849e+00  6.0483908529142845e+00  9.9999985144290582e-01  1.2332613857677300e+02  1.0000016027923437e+00  1.0189285704570559e+00  1.0000196464504809e+00  9.9999985729135210e-01  1.0000031126369495e+00  1.0019515199404165e+00  9.9999800424854379e-01  1.4972617572447069e+00  9.9999716249431525e-01  9.9999706525840781e-01  1.0000007612430963e+00  1.0013509155326328e+00  1.6351854303451594e+00  1.0000005095377404e+00  1.0000002821238583e+00  1.0000071731129760e+00  1.0000019820058768e+00  9.9999690861220880e-01  9.9999748000769995e-01  1.0000007529505717e+00  9.9982353376832067e-01  9.9999838977366806e-01  9.5703972803880955e-01  1.0000020981741657e+00  7.3666654824768374e-01  9.9999777727282746e-01  9.9860005353204961e-01  1.0042441849910604e+00  9.9999826988199070e-01  9.9999991716825565e-01  1.0000148534497832e+00  9.9997415137098822e-01  1.0000021164184913e+00  9.8606967628681630e-01  9.9999677971281531e-01  9.9999764927450152e-01  9.9992500872122492e-01  1.0000014786690592e+00  8.9398196303310506e-01  1.0000009396097562e+00  1.0000004598034287e+00  9.9974306345981900e-01  1.0000027066715260e+00  9.9999739779350039e-01  1.2340888516181798e+00  1.0497191469405536e+00  3.1065388426492655e+00  9.9983535589956518e-01  8.8819518959359589e-01  2.9770364047325950e+00  1.0