<?xml version="1.0"?>
<VTKFile type="UnstructuredGrid"  version="0.1"  >
<UnstructuredGrid>
<Piece  NumberOfPoints="3542" NumberOfCells="6362">
<Points>
<DataArray  type="Float64"  NumberOfComponents="3"  format="ascii">-20 2 0  -20 0 0  -1 0 0  -0.9996988186962042 0.02454122852291233 0  -0.9987954562051724 0.04906767432741797 0  -0.9972904566786902 0.07356456359966773 0  -0.9951847266721968 0.09801714032956083 0  -0.99247953459871 0.1224106751992163 0  -0.989176509964781 0.1467304744553618 0  -0.9852776423889412 0.1709618887603012 0  -0.9807852804032304 0.1950903220161286 0  -0.9757021300385285 0.21910124015687 0  -0.970031253194544 0.2429801799032641 0  -0.9637760657954398 0.2667127574748985 0  -0.9569403357322088 0.2902846772544624 0  -0.9495281805930367 0.3136817403988914 0  -0.9415440651830207 0.3368898533922203 0  -0.9329927988347388 0.3598950365349883 0  -0.9238795325112867 0.3826834323650899 0  -0.9142097557035307 0.4052413140049899 0  -0.9039892931234433 0.427555093430282 0  -0.8932243011955152 0.4496113296546069 0  -0.8819212643483549 0.4713967368259979 0  -0.8700869911087113 0.4928981922297841 0  -0.857728610000272 0.5141027441932218 0  -0.8448535652497071 0.5349976198870972 0  -0.8314696123025453 0.5555702330196022 0  -0.8175848131515836 0.5758081914178454 0  -0.8032075314806448 0.5956993044924335 0  -0.7883464276266062 0.6152315905806269 0  -0.773010453362737 0.6343932841636455 0  -0.7572088465064846 0.6531728429537766 0  -0.7409511253549589 0.6715589548470186 0  -0.7242470829514668 0.6895405447370671 0  -0.7071067811865475 0.7071067811865476 0  -0.6895405447370669 0.7242470829514669 0  -0.6715589548470184 0.740951125354959 0  -0.6531728429537765 0.7572088465064847 0  -0.6343932841636454 0.7730104533627371 0  -0.6152315905806267 0.7883464276266063 0  -0.5956993044924334 0.8032075314806449 0  -0.5758081914178453 0.8175848131515837 0  -0.555570233019602 0.8314696123025455 0  -0.534997619887097 0.8448535652497072 0  -0.5141027441932217 0.8577286100002721 0  -0.492898192229784 0.8700869911087115 0  -0.4713967368259977 0.881921264348355 0  -0.4496113296546067 0.8932243011955152 0  -0.4275550934302819 0.9039892931234434 0  -0.4052413140049897 0.9142097557035307 0  -0.3826834323650897 0.9238795325112867 0  -0.3598950365349882 0.9329927988347388 0  -0.3368898533922199 0.9415440651830208 0  -0.3136817403988914 0.9495281805930367 0  -0.2902846772544622 0.9569403357322089 0  -0.2667127574748983 0.9637760657954398 0  -0.2429801799032639 0.970031253194544 0  -0.2191012401568697 0.9757021300385286 0  -0.1950903220161282 0.9807852804032304 0  -0.1709618887603012 0.9852776423889412 0  -0.1467304744553616 0.989176509964781 0  -0.1224106751992162 0.99247953459871 0  -0.09801714032956065 0.9951847266721969 0  -0.07356456359966733 0.9972904566786902 0  -0.04906767432741801 0.9987954562051724 0  -0.02454122852291214 0.9996988186962042 0  6.123233995736766e-17 1 0  0.02454122852291226 0.9996988186962042 0  0.04906767432741813 0.9987954562051724 0  0.07356456359966745 0.9972904566786902 0  0.09801714032956077 0.9951847266721968 0  0.1224106751992163 0.99247953459871 0  0.1467304744553617 0.989176509964781 0  0.1709618887603014 0.9852776423889412 0  0.1950903220161283 0.9807852804032304 0  0.2191012401568698 0.9757021300385286 0  0.242980179903264 0.970031253194544 0  0.2667127574748984 0.9637760657954398 0  0.2902846772544623 0.9569403357322089 0  0.3136817403988916 0.9495281805930367 0  0.3368898533922201 0.9415440651830208 0  0.3598950365349883 0.9329927988347388 0  0.3826834323650898 0.9238795325112867 0  0.4052413140049899 0.9142097557035307 0  0.4275550934302822 0.9039892931234433 0  0.4496113296546066 0.8932243011955153 0  0.4713967368259978 0.8819212643483549 0  0.4928981922297841 0.8700869911087113 0  0.5141027441932217 0.8577286100002721 0  0.5349976198870973 0.844853565249707 0  0.5555702330196023 0.8314696123025452 0  0.5758081914178453 0.8175848131515837 0  0.5956993044924335 0.8032075314806448 0  0.6152315905806268 0.7883464276266062 0  0.6343932841636455 0.773010453362737 0  0.6531728429537768 0.7572088465064845 0  0.6715589548470183 0.7409511253549591 0  0.6895405447370669 0.7242470829514669 0  0.7071067811865476 0.7071067811865475 0  0.724247082951467 0.6895405447370668 0  0.7409511253549591 0.6715589548470183 0  0.7572088465064846 0.6531728429537768 0  0.773010453362737 0.6343932841636455 0  0.7883464276266063 0.6152315905806268 0  0.8032075314806449 0.5956993044924334 0  0.8175848131515837 0.5758081914178453 0  0.8314696123025452 0.5555702330196022 0  0.8448535652497071 0.5349976198870972 0  0.8577286100002721 0.5141027441932217 0  0.8700869911087115 0.492898192229784 0  0.881921264348355 0.4713967368259976 0  0.8932243011955153 0.4496113296546065 0  0.9039892931234433 0.4275550934302821 0  0.9142097557035307 0.4052413140049899 0  0.9238795325112867 0.3826834323650898 0  0.932992798834739 0.3598950365349881 0  0.9415440651830208 0.3368898533922201 0  0.9495281805930367 0.3136817403988915 0  0.9569403357322088 0.2902846772544623 0  0.9637760657954398 0.2667127574748984 0  0.970031253194544 0.2429801799032639 0  0.9757021300385286 0.2191012401568698 0  0.9807852804032304 0.1950903220161282 0  0.9852776423889412 0.1709618887603012 0  0.989176509964781 0.1467304744553617 0  0.99247953459871 0.1224106751992162 0  0.9951847266721969 0.0980171403295606 0  0.9972904566786902 0.07356456359966743 0  0.9987954562051724 0.04906767432741801 0  0.9996988186962042 0.02454122852291229 0  1 0 0  20 0 0  20 2 0  0 2 0  10 2 0  -10 2 0  10.5 0 0  5 2 0  -10.5 0 0  -5 2 0  15 2 0  5.75 0 0  2.5 2 0  -15 2 0  -5.75 0 0  -2.5 2 0  15.25 0 0  3.375 0 0  -15.25 0 0  -3.375 0 0  17.5 2 0  17.625 0 0  -17.625 0 0  -17.5 2 0  -12.5 2 0  -12.875 0 0  8.125 0 0  7.5 2 0  12.875 0 0  12.5 2 0  -8.125 0 0  -7.5 2 0  -18.75 2 0  -18.8125 0 0  18.75 2 0  18.8125 0 0  -16.25 2 0  -16.4375 0 0  16.4375 0 0  16.25 2 0  13.75 2 0  -14.0625 0 0  -13.75 2 0  11.6875 0 0  -11.6875 0 0  -9.3125 0 0  8.75 2 0  -8.75 2 0  6.9375 0 0  6.25 2 0  -6.9375 0 0  -6.25 2 0  9.3125 0 0  -11.25 2 0  11.25 2 0  3.75 2 0  4.5625 0 0  -4.5625 0 0  -3.75 2 0  1.25 2 0  -1.25 2 0  14.0625 0 0  2.1875 0 0  -2.1875 0 0  -20 1 0  20 1 0  18.21875 0.982421875 0  -18.21875 0.982421875 0  16.875 1.0498046875 0  -17.03125 0.966796875 0  15.625 1.0625 0  -15.84375 0.953125 0  14.375 1.0732421875 0  -14.375 1.0732421875 0  1.830289387965117 1.052284088108649 0  -1.830289387965117 1.052284088108649 0  -3.125 1.08203125 0  -13.28477656888586 1.012129001112436 0  13.125 1.08203125 0  3.125 1.08203125 0  -4.375 1.0888671875 0  11.875 1.0888671875 0  -11.875 1.0888671875 0  4.203765290519877 1.0193030867737 0  -5.625 1.09375 0  5.625 1.09375 0  -10.80634835916782 1.025744365312066 0  10.625 1.09375 0  9.375 1.0966796875 0  -6.875 1.0966796875 0  -9.375 1.0966796875 0  6.684990875912408 1.03136405109489 0  -8.322099415573495 1.036062682633283 0  8.125 1.09765625 0  19.11075969939671 0.8508947319664032 0  -19.11075969939671 0.8508947319664032 0  -7.53125 0 0  8.71875 0 0  7.423362102206937 0.6655467048188293 0  9.90625 0 0  -6.34375 0 0  -10.07209987056368 0.6864155791813131 0  -5.15625 0 0  4.932893941568688 0.70313517104756 0  11.09375 0 0  -3.96875 0 0  12.28125 0 0  -12.56167362378033 0.7158719711052053 0  -15.12789358749343 1.239622257084254 0  19.375 2 0  -19.375 2 0  -7.586458743762512 0.7777256637040587 0  -8.876841588719831 0.5749490497356908 0  -2.78125 0 0  13.46875 0 0  2.486351124110562 0.6882204272146759 0  -2.484375 0.6875496078884429 0  13.765625 0.6685592193186988 0  6.127605163798639 0.5971727330055587 0  0.625 2 0  -0.625 2 0  -1.146535794159178 1.28513409566998 0  1.146535794159178 1.285134095669981 0  14.65625 0 0  14.953125 0.6512707752786624 0  -14.87682753143027 0.5890664696931456 0  12.578125 0.6384885491877257 0  -3.671875 0.6384885491877257 0  -15.625 2 0  -11.36675239212577 0.6158089665857418 0  15.00271470412651 1.324726469417674 0  17.53235848397354 0.7266244978817956 0  11.390625 0.6116981677410314 0  -4.859375 0.6116981677410314 0  15.84375 0 0  16.140625 0.6148897058823529 0  7.497593266890831 1.330710907262048 0  13.76254792112057 1.334335181755445 0  -10.20969602084016 1.352738855957021 0  17.03125 0 0  3.639986821556412 0.6311208834101457 0  -2.422032960990368 1.344610008595471 0  -1.875 2 0  2.42168763602468 1.344854035092462 0  1.875 2 0  -6.046875 0.5879464285714285 0  10.203125 0.5879464285714285 0  4.785027294216357 1.360955117010924 0  -16.43327865604348 1.32661481258014 0  -16.44139997701004 0.663326532427168 0  -12.71719161438206 1.366886164755866 0  9.015625 0.567039754702805 0  -13.85227446991684 0.6433291643838606 0  17.68435132148515 1.367585767263021 0  -8.125 2 0  -7.779164034427432 1.405551895778211 0  6.875 2 0  -16.875 2 0  16.25211206745888 1.264109755085799 0  -3.748868614850469 1.292331074664245 0  12.50113138514953 1.292331074664245 0  -4.999425840599162 1.238293400364507 0  11.25057415940084 1.238293400364507 0  10.00021284174179 1.186027320246887 0  -6.249787158258211 1.186027320246887 0  8.750028772491092 1.133996757348608 0  8.125 2 0  -9.375 2 0  -6.875 2 0  9.375 2 0  10.625 2 0  5.625 2 0  -5.625 2 0  -11.875 2 0  11.875 2 0  -4.375 2 0  3.125 2 0  13.125 2 0  -14.375 2 0  14.375 2 0  15.625 2 0  -18.125 2 0  16.875 2 0  -3.125 2 0  -10.625 2 0  4.375 2 0  -13.125 2 0  18.125 2 0  -17.62042339570457 1.322431301452557 0  -17.64048254773117 0.661277151197267 0  -1.59375 0 0  1.59375 0 0  -19.40625 0 0  19.40625 0 0  20 0.5 0  19.0625 1.466926268772181 0  -18.7305243036722 1.362703047674974 0  -5.451064633443578 0.5209722999527524 0  10.79893536655642 0.5209722999527524 0  9.610417111950763 0.5183010867631196 0  -13.46875 0 0  3.96875 0 0  -11.09375 0 0  6.34375 0 0  2.78125 0 0  -8.71875 0 0  -12.28125 0 0  5.15625 0 0  -9.90625 0 0  7.53125 0 0  -15.84375 0 0  -17.03125 0 0  -18.21875 0 0  18.21875 0 0  -14.65625 0 0  20 1.5 0  -19.48071156660626 1.370757229128913 0  -20 0.5 0  -4.24552725411087 0.5169543671041
[...]
<CellData  Scalars="f_2203781"> 
<DataArray  type="Float64"  Name="f_2203781"  format="ascii">2.4510336376182408e-03   3.3515755003490316e-03   3.2958222935357390e-03   2.8409385556806511e-03   3.3252660713595371e-03   5.0116008391853590e-03   3.9826325703664241e-03   3.4075467576276191e-03   2.1088053305274032e-03   2.9582156735279102e-03   3.8690411614883341e-03   2.2023466475797593e-03   1.9030578956119017e-02   1.7690861323173639e-02   1.4190988164047128e-02   1.1783824893454073e-02   1.2365063341843176e-02   9.6409521744169595e-03   1.1481447293946678e-02   8.1613302191538509e-03   1.1044941573136837e-02   8.0098611343829146e-03   1.0862071570930503e-02   1.0007279065730137e-02   1.1459095746200638e-02   1.6700066206572189e-02   1.0624594463127728e-02   1.2063758159963961e-02   1.9615288830335795e-02   2.0144103295662883e-02   1.5212176178452842e-02   1.0427748183028523e-02   1.3996127929325889e-03   1.7070323133150833e-03   1.9070031883947258e-03   1.9760436173647121e-03   1.7456656197551914e-03   1.8127346510866799e-03   1.7906953788690365e-03   1.9707582229846823e-03   1.0251879851642725e-03   1.4209101087073602e-03   1.1058627229411774e-03   1.2829524239652782e-03   1.3250698536846311e-03   1.1164468979011925e-03   1.1328314208571186e-03   1.1088828738027557e-03   1.1206514540952721e-03   1.1300510596283109e-03   7.3861223739477054e-04   6.7113212429802279e-04   2.1061546032369260e-03   1.4028101190583771e-03   1.1666070187979810e-03   1.3971399845892664e-03   1.9285260811812040e-03   2.5321493429596165e-03   1.8468768274127070e-03   1.6919710422343866e-03   2.7684112390614379e-03   2.6085594455834459e-03   2.1884475576614071e-03   1.9227176057691139e-03   1.9337692985091691e-03   2.5567646377352383e-03   1.7871924824062178e-03   2.5558632257310860e-03   1.8411690535713740e-03   2.0668953598216304e-03   1.8597617435609094e-03   1.8199918812863115e-03   5.8864972912126470e-03   4.7421074058437967e-03   4.4314740655465798e-03   4.3357029442262045e-03   1.2587038952071464e-03   1.1985169099811910e-03   1.7954217443611096e-03   1.0387438034824995e-03   1.1322901641890018e-03   9.5744341140305939e-04   9.0070133229714082e-04   9.7207978502325716e-04   1.3171410393310633e-03   1.2169031976792658e-03   9.8474070185123339e-04   8.9099920061235470e-04   1.1438637420714763e-03   1.0087852774313102e-03   7.3888632035421420e-04   9.0910743939912715e-04   5.1074347325588874e-02   4.7313710912236309e-02   5.1319082785144000e-02   5.2689567547376102e-02   4.7145956226155646e-02   3.7617740434947311e-02   6.5366455669222251e-02   7.4741161637621914e-02   2.8997273144846895e-02   3.9098772629837776e-02   3.7621092429971317e-02   3.8606160826837863e-02   3.8199101751363783e-02   3.7999923386776623e-02   3.9249027747911773e-02   3.2911785585879295e-02   3.5025955037711012e-02   4.2959931593911281e-02   2.2801797469714610e-02   2.5804195854063960e-02   4.0120202261963452e-02   3.6728604372270678e-02   4.4471494145113089e-02   4.4784116120562212e-02   3.9683219972981833e-02   5.9892462936205759e-02   5.1325929377892841e-02   5.2251517648319069e-02   3.1630443605798989e-02   3.0819687505627757e-02   5.3487024005862624e-02   5.9500456976424386e-02   2.9389018641662542e-02   3.0612326695023399e-02   2.5986895477545069e-02   2.8969335742842710e-02   5.3531012729803477e-02   4.8230352879502295e-02   4.3132107925048638e-02   5.9956239367525824e-02   1.9002693758761107e-02   1.1738539191739053e-02   1.8694787257602530e-02   1.3769897487018470e-02   4.4015318972219802e-02   2.5761912950044080e-02   3.0330229928964957e-02   2.2543906809538140e-02   5.6046224882072691e-02   3.7998195931169675e-02   1.2821704212006918e-01   1.8098961862628815e-01   3.1503102464484033e-02   3.2864835776270224e-02   2.0171010664548666e-02   2.1910785252703964e-02   9.2328057670909725e-03   1.3560138035666164e-02   5.7826445823612486e-03   8.6757499901846946e-03   9.9900193935174054e-03   9.5446323231163765e-03   8.4245917655482137e-03   1.1145921735592602e-02   1.0889183009321263e-02   8.8353736658103241e-03   1.8974553857149180e-02   1.8680475787027539e-02   2.4687176651459761e-03   6.2703201733255512e-03   3.8569953138931066e-03   4.4626813305791747e-03   2.7517008576852079e-02   2.7002138839953102e-02   2.2694037852867461e-02   2.0278270270558323e-02   2.8789084276550154e-02   2.4158560904410212e-02   1.5348602166331504e-02   1.9837593142014217e-02   2.7225286659350714e-02   4.1976696705834843e-02   2.7245164289869995e-02   3.7757250873703983e-02   2.9182056053671607e-02   5.2580716808324268e-02   4.2013517354643343e-02   3.4211469197103016e-02   9.1005273960520303e-03   8.1250031157161472e-03   6.0623416964909775e-03   6.9670527728184061e-03   8.0892016975197371e-03   6.9259566165954436e-03   6.9330027485515330e-03   5.4562241841535223e-03   7.4500970984266619e-03   6.8110720662431980e-03   5.9092556065727673e-03   8.5211958321148567e-03   7.2030837567032746e-03   6.1204129607638933e-03   9.0904741005300663e-03   7.8948935231755914e-03   5.7248130260822219e-03   6.1658604254610462e-03   5.4346764023615679e-03   6.6591742502499140e-03   2.5811858768212191e-03   1.0304679466634256e-03   1.7590611877845923e-03   1.3502084458816110e-03   2.1907819626722481e-03   2.7326467648876355e-03   1.9924726450172240e-03   2.5033807531251910e-03   2.2863099142994042e-03   1.8077895709175975e-03   2.2797245872759162e-03   2.0678740388003574e-03   3.5576264414307131e-03   3.5040604699459474e-03   3.5827986225234042e-03   4.2398170046834245e-03   6.2374044449788112e-04   9.5806080375466607e-04   5.3256088192682439e-04   1.0274231703799072e-03   4.3882089654144162e-03   5.1962423387968441e-03   4.3882258967550903e-03   5.6639114719172871e-03   3.2719725723329846e-02   4.6537764592062117e-02   4.8623403391862045e-02   5.5087065140581017e-02   3.2406044963049850e-02   3.7238510521546309e-02   4.6760330958626785e-02   3.8392082796960499e-02   3.8820641737255565e-02   4.1420712265616652e-02   5.4013872066066809e-02   5.7692034138962053e-02   3.5856330513022984e-02   5.3516831521961260e-02   4.1794055167479666e-02   4.0168334774165357e-02   4.3492438113458758e-02   5.5692611183085591e-02   6.2969396658320326e-02   5.8346598441968565e-02   5.0600183247193689e-02   4.4632601985809539e-02   3.0649260818301119e-02   3.5799747970673326e-02   4.1820902220618530e-02   3.1943106670906864e-02   3.7856316931451153e-02   3.0658167767024656e-02   2.0893232645875712e-02   2.0699854630674572e-02   1.5368905110438454e-02   1.7478582849325405e-02   2.7138408259451220e-02   2.6162149386775781e-02   2.4683292411485938e-02   1.9818266405446101e-02   2.5260612248845994e-02   2.3856557536392629e-02   3.2959593614921838e-02   3.7472477855950877e-02   1.5704434926831597e-02   1.0648480957833936e-02   1.8178736004420475e-02   1.4238587236239206e-02   2.4500715664760312e-02   2.1805241737776333e-02   3.8557760965493140e-02   3.9900203475232862e-02   4.9107837011918280e-02   5.4924035084918173e-02   3.7942279914340238e-02   4.6881731953182418e-02   5.5540932542768880e-02   4.7278946019119257e-02   3.9918990329946905e-02   2.6109819487638256e-02   3.8286831079218486e-02   4.2126574637084913e-02   3.2023896457672556e-02   3.6976218177563844e-02   3.4785838217893064e-02   2.7590060250351402e-02   2.5471444522935868e-02   2.8317090440977903e-02   1.4961548372800245e-02   2.3573436725527398e-02   8.8413208162149964e-03   1.2533454494164254e-02   7.4927954113627425e-03   7.8153997673825297e-03   3.6284076283296723e-03   6.3999927599288093e-03   7.5939570016755305e-03   1.0744425569267056e-02   7.9008610755156843e-03   8.2072265830098294e-03   1.3022855350597797e-02   1.2337664029624419e-02   7.4756655791320212e-03   5.7039439106398269e-03   6.4085989079233950e-03   5.1795367517539570e-03   1.4398237292600131e-02   1.5979429249542081e-02   3.8250661150986069e-02   6.8436817374868383e-02   4.7444279350314006e-02   4.4641070830278552e-02   3.4776719222554986e-02   2.3746285910720932e-02   2.6944068925340049e-02   1.4928854961895596e-02   3.8177832462054371e-03   6.5678658602380414e-03   7.4395220796461391e-03   5.3707011292551034e-03   1.0239604056890271e-02   1.0327615901379525e-02   6.7727964368566899e-03   7.5430131088966984e-03   1.5737681964614672e-03   1.1682571661860589e-03   1.0544835404748282e-03   1.5273847596528425e-03   9.1593231213233043e-03   1.3791564296213591e-02   7.3879448398762818e-03   7.0123217660872129e-03   1.2553135210886915e-01   1.7604829559144042e-01   5.3265977900000136e-02   1.3508773897852985e-01   6.3831807764781021e-02   4.4000929049030607e-02   4.0390757064974303e-02   4.9944974727429918e-02   3.8289140685004996e-02   4.3519195222221974e-02   2.1152792793237108e-02   2.7570198163615594e-02   9.4348345365061082e-03   9.8842281320536390e-03   1.1549377146356923e-02   1.3030201439017692e-02   4.6311251277045412e-03   3.9677294179400113e-03   3.2126135942830451e-03   3.0409391809337648e-03   2.2550768422921383e-03   2.7797595067631281e-03   2.6781800426083076e-03   2.1896182518550762e-03   1.0745730027127399e-03   1.6092054017828475e-03   2.4585949451756857e-03   2.3973689214728472e-03   1.5318447987928503e-03   1.8432170271199121e-03   1.6370595691113279e-03   2.6255384349910486e-03   2.8051646648588006e-03   2.4077301696746765e-03   2.3020548012554353e-03   1.5768687490838162e-03   1.9531125190101351e-02   1.4777956978682427e-02   2.5174191136593999e-02   2.2628329906686815e-02   1.3188331062100725e-02   1.2195133205007628e-02   1.8863623578562201e-02   1.2853794715942293e-02   1.3621890355506178e-02   1.2426667721764546e-02   1.1282459100318399e-02   6.3441659705596089e-03   1.2589840715825159e-02   1.2807878097002762e-02   1.0478805816765885e-02   1.4533573023521497e-02   2.6960516971873570e-03   2.4648756927348782e-03   3.6765199657831349e-03   5.0148141406503224e-03   2.8391144385373247e-03   2.7268740306117850e-03   2.4400882821384207e-03   2.7255431345203840e-03   2.9737469267585924e-03   1.5764638296147106e-03   2.0274193712977572e-03   2.1643599137715851e-03   1.1367261704518319e-03   9.9780499631213883e-04   1.3324796694799165e-03   1.1025218001796738e-03   9.7819881634546237e-04   1.0118815761622063e-03   9.0365688305272293e-04   1.2235580314965075e-03   1.1679559176197864e-03   1.3641132587334439e-03   1.0947040512391492e-03   1.1050014775701850e-03   1.0368863023684010e-03   1.1675919858562759e-03   8.1474504253281448e-04   7.8046741093119236e-04   1.5096266255748450e-03   1.4771404500388042e-03   1.0588033709986262e-03   1.6600649917796590e-03   1.5243943564791482e-03   1.1366430678463005e-03   1.4879582250206529e-03   1.4802652823662193e-03   5.6371668317119119e-04   3.0332089735849154e-04   8.6427384617734004e-04   6.0599945732176929e-04   9.4574720134827719e-03   1.0648692149492557e-02   5.2624974512755756e-03   7.7193996653264138e-03   6.6347895377034706e-03   6.4950291059373087e-03   7.7589938665954322e-03   1.2660330236258907e-02   5.6476976064540260e-03   4.7209200231419137e-03   6.0658920654394080e-03   4.8105819897528651e-03   5.2469668446252105e-03   3.6440506547134560e-03   3.9036584847078190e-03   4.3794350421896113e-03   2.9871352548672295e-03   3.0985685692675609e-03   3.0696078342950877e-03   2.6877674151498635e-03   2.0883129976853828e-03   2.4285654502143889e-03   1.4428120229485056e-03   1.8144709379083904e-03   1.0402178014635435e-03   1.0624295822438711e-03   9.7360395715286095e-04   1.2957811221653342e-03   1.0027949577132524e-03   1.4936457578168230e-03   6.8743278670270903e-04   1.5583063878568128e-03   2.0252543803414846e-03   1.2180508140828914e-03   1.2021958159938583e-03   1.0218239268068947e-03   1.5331688960555537e-03   1.4078232730278762e-03   1.5589466794725675e-03   1.4121946911991332e-03   4.8576563182800701e-02   3.2701970184679574e-02   3.7103462806278173e-02   2.8973998078502226e-02   4.8779992099927952e-08   2.8563794886642137e-03   2.9245259887337588e-03   3.2919238932329104e-03   2.8935293471219594e-03   2.5905483398098925e-02   2.7137530338802014e-02   3.2571061422721814e-02   3.2611759470412810e-02   2.8713750733437272e-03   2.6734325507369568e-03   4.5180182190939664e-03   2.5706655797944509e-03   7.0465069530890141e-03   5.4967394932401610e-03   4.1260320252324272e-03   2.7765290038380781e-03   1.0489711932596803e-03   1.1930687516610798e-03   7.1580892221806771e-04   1.4265783408469990e-03   6.9381086271950865e-05   7.3175065851649756e-08   3.7918474833281200e-05   2.1842892365366817e-05   2.7119547017476037e-05   2.9739954558986926e-05   2.9355513201571491e-07   3.3753627229201070e-08   7.2206526573004040e-09   2.9174706359473467e-09   2.9335649659561480e-09   3.4049987878589475e-09   3.5549296483342110e-09   3.7070228529365602e-09   5.3788285031730802e-09   2.9809659244752014e-07   3.0603273885780374e-07   2.6066179043635610e-07   5.3363474720573425e-07   3.4993359632776785e-07   5.2760151694720987e-07   3.9917774761408590e-07   2.4005714919558491e-07   4.6649087358911860e-07   9.2462396013726221e-07   3.7882310644148336e-07   5.5537810029306185e-08   4.3775725382761380e-08   1.2759372584397278e-07   4.2575245466721571e-09   6.6398775775258342e-08   4.7860902563181257e-08   6.9043936547386266e-08   2.7757373574197190e-05   3.4912144563091262e-05   4.2812631646095992e-05   2.7501863154692665e-05   1.5934995711791488e-06   9.0527048708410436e-07   2.0334743496210853e-06   1.4272676369394029e-06   4.6704375990764554e-04   4.0248539696282319e-04   6.1882907216294879e-04   2.9339083279702799e-04   7.0707013801463443e-05   4.4887015619045993e-05   1.1074623359569148e-04   6.9502646560520834e-05   1.3287320004755524e-02   1.4894772623510440e-02   1.8640289776470691e-02   1.6878712159888839e-02   1.9167540670836116e-03   1.4864028513739695e-03   1.7747643407385475e-03   1.5705059251007365e-03   8.7303684762891666e-03   1.0085115758942602e-02   5.4546530733380425e-03   5.6313803557867005e-03   5.4376842240809899e-08   4.4992859603398124e-08   1.6513017816307876e-03   1.8651122143748832e-03   1.3954855009103621e-03   1.5574607171620794e-03   8.2794477095460415e-06   8.9905135770398624e-06   6.5345341617924658e-06   8.5148029064595954e-06   4.8737680193602304e-06   2.9608016552360676e-07   8.3964202860265774e-08   7.0102799677076145e-08   2.5446645526732721e-08   1.9354046252130442e-08   1.9174945423401873e-08   1.7125211075793584e-08   3.6941305403132137e-08   2.6749231919129620e-08   2.8677967933740808e-08   1.7185623839956243e-07   4.3885893713561389e-08   6.7716044803937204e-08   6.0503944871626396e-07   1.0331975426346512e-06   5.0925615892929830e-07   6.1054734765973642e-07   7.6476493174060021e-07   5.9386270725502599e-08   4.0662309880070216e-08   4.7204477836279196e-08   2.7268717108957666e-08   1.4406800615569663e-03   1.1515399663842225e-03   1.0568286290043533e-03   1.3490751425844019e-03   7.9484799085645396e-04   1.0503299100576384e-03   7.3814389235959856e-04   8.3127287815004691e-04   3.4482905656498067e-04   5.7381407172236261e-04   4.5405475975736565e-04   3.7977662021707861e-04   1.4363214079433806e-03   1.2146356942825216e-03   1.4443260577415905e-03   1.1933482655151139e-03   4.2421243054296731e-09   4.2321674738932891e-08   1.2724744244022951e-07   3.4973336379288403e-08   5.5433730528344674e-08   7.3044914665172057e-08   4.3676424450792645e-08   7.0667846961719069e-08   3.3937989145584574e-09   1.0736794880130426e-05   1.5948364515777152e-05   1.0699426360822165e-05   1.0112052264826570e-05   3.8992643426594683e-07   2.5830672316205039e-07   6.9892779890350594e-07   6.1990642337626156e-07   9.2545068720856871e-06   6.4803964405140554e-06   8.6365724587537402e-06   5.3791754789357108e-06   3.9110676185560966e-09   4.7604948947932331e-08   3.8596644050453892e-08   5.4928546255646974e-08   1.0140259353763948e-07   1.5987629604936553e-08   6.7900239891242749e-09   4.7033978552864912e-07   4.8540430867761598e-07   7.4683804519573715e-08   1.5645837532001640e-07   5.8465295317921051e-08   5.7342931225926141e-08   5.4728068566524210e-08   5.5933297480901216e-08   8.9854309981005476e-08   7.8717624646480748e-08   5.9141244704548372e-08   2.1563680474317180e-08   2.1738003075183386e-08   1.4683653089792225e-08   4.4682311545789861e-08   1.4113535806422340e-08   4.6799048675514926e-08   4.1691442525759466e-08   9.4605683708849906e-08   7.4191286790738407e-08   1.6642364235914028e-07   1.2823790658284206e-07   1.3637711636596442e-07   3.7205849571422029e-08   4.0609541568879385e-08   3.7926154192043692e-08   4.6667626500179438e-08   3.9250937676493764e-08   5.3935204877595337e-08   2.0233860384442661e-07   6.0403862253040891e-09   1.6032711237109807e-06   2.4775829055195424e-06   1.6905042864901755e-06   1.7365329031622113e-06   4.9237075623030668e-06   5.9138328936190183e-06   3.4411961370796283e-06   4.0881843336893543e-06   4.5881031921916171e-08   5.4215500496550056e-08   4.5921320010219367e-08   5.7331883280256897e-08   3.7227089857070943e-05   6.9454976468481773e-05   5.5250084919443196e-05   3.5189123772500412e-05   3.6957352749683481e-08   5.1129664459717140e-08   3.0186742573157425e-09   2.0094145985413325e-07   2.9560477016262412e-05   3.2505911899281090e-05   5.0987700371637054e-05   2.8126101003869786e-05   3.7954156325831426e-05   2.8624565738480323e-05   3.9828488220623662e-08   5.9242335569361902e-08   6.2213768345413907e-09   3.7538558545537580e-04   5.0423948288671637e-04   4.5359781047932203e-04   5.2638144030469453e-04   4.7522927324591332e-08   8.0458791359217007e-04   7.9482275569487152e-04   7.2288331422557851e-04   7.2559423758088192e-04   9.5852037873769282e-04   6.9721714120327409e-04   1.0553920120145827e-03   7.8166785352989487e-04   9.2199466395252201e-05   9.1143179142865599e-05   1.3194993178754569e-04   7.8555074258913128e-05   9.9646136870253739e-04   1.0320589542527638e-03   1.0010883133862814e-03   8.4654286940634893e-04   7.1602264883801257e-08   6.9492077582779816e-08   4.0148247989436220e-07   5.3225276467913560e-07   4.0254979616580830e-07   1.5870667357156617e-06   2.3311354458521174e-06   3.3378467204308951e-06   2.3420330410804072e-06   1.3536665945873558e-02   2.1903690934664755e-02   2.6889209877609403e-02   1.9344709821810926e-02   9.9699180193535929e-03   7.4165097746480436e-03   1.5591954365987776e-02   1.1207448014919515e-02   4.4139104773834115e-03   9.1903819747279954e-03   9.8487352517177447e-03   5.7541414091297630e-03   1.6012195302091352e-02   8.1928718885479757e-03   1.8078749890062210e-02   1.6959063329173980e-02   3.1742504208494681e-03   4.8180895218456008e-03   3.7857831223311713e-03   4.2808564911097583e-03   1.5107682354001768e-02   1.4810234009114659e-02   1.8633434292040327e-02   2.1937991990457741e-02   1.8058508585756215e-02   2.0633894016897369e-02   1.1584789376301101e-02   1.7938706370758610e-02   4.3784525187538166e-08   6.9352999705178562e-08   8.1251029740527809e-08   3.9442716242192739e-08   4.0152697302715975e-09   4.4818372377886912e-08   5.6895403363858302e-08   3.2882544708888207e-04   3.4945630350543411e-04   4.2931598234993880e-04   3.6584052893198245e-04   1.7130328089209285e-04   1.9992629024199527e-04   1.4847820990102179e-04   1.1413831957023461e-04   1.3201704239814488e-07   2.5381349989677421e-08   2.8976981245364569e-09   3.6624409452312986e-08   7.9397378040368929e-08   5.6969875406311398e-08   5.8885258523329066e-08   4.6285261520193096e-08   6.0755981136583681e-08   2.3978798554970440e-05   2.3691172165626943e-05   2.8260787338645216e-05   2.0373349334024313e-05   3.0120634995733055e-06   5.8388162983966074e-06   3.7283526773391845e-06   3.7380488306025843e-06   4.4642634322238505e-08   3.7542824757980963e-08   2.5343506679783708e-08   4.9591308726636064e-08   2.4072181706336328e-08   1.9946203400170628e-08   2.0237265591681392e-08   4.4547956783097500e-08   9.3404628337083904e-08   9.3641736854324175e-08   9.8002598177141024e-08   2.0156145088253674e-07   5.8680403266827395e-08   4.3583399090236827e-09   2.7260557009461132e-08   2.3247187930498981e-08   3.0002164074012302e-08   2.5428457575265180e-08   4.1352251081620183e-05   3.0592