<?xml version="1.0"?>
<VTKFile type="UnstructuredGrid"  version="0.1"  >
<UnstructuredGrid>
<Piece  NumberOfPoints="2401" NumberOfCells="4608">
<Points>
<DataArray  type="Float64"  NumberOfComponents="3"  format="ascii">0 0 0  0.001070538380698371 0 0  0.004277569313095364 0 0  0.009607359798386061 0 0  0.01703708685546806 0 0  0.02653493525245065 0 0  0.03806023374436157 0 0  0.05156362923366253 0 0  0.06698729810778931 0 0  0.08426519384873815 0 0  0.1033233298543955 0 0  0.1240800962605269 0 0  0.1464466094067445 0 0  0.1703270924499866 0 0  0.1956192854956637 0 0  0.2222148834902257 0 0  0.2500000000000299 0 0  0.2788556548905322 0 0  0.308658283817491 0 0  0.339280267348458 0 0  0.3705904774487813 0 0  0.4024548389919803 0 0  0.4347369038900211 0 0  0.467298435384978 0 0  0.5000000000000517 0 0  0.5327015646151253 0 0  0.5652630961100813 0 0  0.5975451610081212 0 0  0.6294095225513188 0 0  0.6607197326516399 0 0  0.6913417161826045 0 0  0.7211443451095605 0 0  0.7500000000000597 0 0  0.7777851165098603 0 0  0.8043807145044185 0 0  0.829672907550091 0 0  0.8535533905933287 0 0  0.8759199037395413 0 0  0.8966766701456674 0 0  0.9157348061513193 0 0  0.9330127018922625 0 0  0.9484363707663832 0 0  0.961939766255678 0 0  0.9734650647475827 0 0  0.9829629131445586 0 0  0.9903926402016341 0 0  0.9957224306869181 0 0  0.9989294616193084 0 0  1 0 0  0 0.02083333333333333 0  0.001070538380698371 0.02083333333333333 0  0.004277569313095364 0.02083333333333333 0  0.009607359798386061 0.02083333333333333 0  0.01703708685546806 0.02083333333333333 0  0.02653493525245065 0.02083333333333333 0  0.03806023374436157 0.02083333333333333 0  0.05156362923366253 0.02083333333333333 0  0.06698729810778931 0.02083333333333333 0  0.08426519384873815 0.02083333333333333 0  0.1033233298543955 0.02083333333333333 0  0.1240800962605269 0.02083333333333333 0  0.1464466094067445 0.02083333333333333 0  0.1703270924499866 0.02083333333333333 0  0.1956192854956637 0.02083333333333333 0  0.2222148834902257 0.02083333333333333 0  0.2500000000000299 0.02083333333333333 0  0.2788556548905322 0.02083333333333333 0  0.308658283817491 0.02083333333333333 0  0.339280267348458 0.02083333333333333 0  0.3705904774487813 0.02083333333333333 0  0.4024548389919803 0.02083333333333333 0  0.4347369038900211 0.02083333333333333 0  0.467298435384978 0.02083333333333333 0  0.5000000000000517 0.02083333333333333 0  0.5327015646151253 0.02083333333333333 0  0.5652630961100813 0.02083333333333333 0  0.5975451610081212 0.02083333333333333 0  0.6294095225513188 0.02083333333333333 0  0.6607197326516399 0.02083333333333333 0  0.6913417161826045 0.02083333333333333 0  0.7211443451095605 0.02083333333333333 0  0.7500000000000597 0.02083333333333333 0  0.7777851165098603 0.02083333333333333 0  0.8043807145044185 0.02083333333333333 0  0.829672907550091 0.02083333333333333 0  0.8535533905933287 0.02083333333333333 0  0.8759199037395413 0.02083333333333333 0  0.8966766701456674 0.02083333333333333 0  0.9157348061513193 0.02083333333333333 0  0.9330127018922625 0.02083333333333333 0  0.9484363707663832 0.02083333333333333 0  0.961939766255678 0.02083333333333333 0  0.9734650647475827 0.02083333333333333 0  0.9829629131445586 0.02083333333333333 0  0.9903926402016341 0.02083333333333333 0  0.9957224306869181 0.02083333333333333 0  0.9989294616193084 0.02083333333333333 0  1 0.02083333333333333 0  0 0.04166666666666666 0  0.001070538380698371 0.04166666666666666 0  0.004277569313095364 0.04166666666666666 0  0.009607359798386061 0.04166666666666666 0  0.01703708685546806 0.04166666666666666 0  0.02653493525245065 0.04166666666666666 0  0.03806023374436157 0.04166666666666666 0  0.05156362923366253 0.04166666666666666 0  0.06698729810778931 0.04166666666666666 0  0.08426519384873815 0.04166666666666666 0  0.1033233298543955 0.04166666666666666 0  0.1240800962605269 0.04166666666666666 0  0.1464466094067445 0.04166666666666666 0  0.1703270924499866 0.04166666666666666 0  0.1956192854956637 0.04166666666666666 0  0.2222148834902257 0.04166666666666666 0  0.2500000000000299 0.04166666666666666 0  0.2788556548905322 0.04166666666666666 0  0.308658283817491 0.04166666666666666 0  0.339280267348458 0.04166666666666666 0  0.3705904774487813 0.04166666666666666 0  0.4024548389919803 0.04166666666666666 0  0.4347369038900211 0.04166666666666666 0  0.467298435384978 0.04166666666666666 0  0.5000000000000517 0.04166666666666666 0  0.5327015646151253 0.04166666666666666 0  0.5652630961100813 0.04166666666666666 0  0.5975451610081212 0.04166666666666666 0  0.6294095225513188 0.04166666666666666 0  0.6607197326516399 0.04166666666666666 0  0.6913417161826045 0.04166666666666666 0  0.7211443451095605 0.04166666666666666 0  0.7500000000000597 0.04166666666666666 0  0.7777851165098603 0.04166666666666666 0  0.8043807145044185 0.04166666666666666 0  0.829672907550091 0.04166666666666666 0  0.8535533905933287 0.04166666666666666 0  0.8759199037395413 0.04166666666666666 0  0.8966766701456674 0.04166666666666666 0  0.9157348061513193 0.04166666666666666 0  0.9330127018922625 0.04166666666666666 0  0.9484363707663832 0.04166666666666666 0  0.961939766255678 0.04166666666666666 0  0.9734650647475827 0.04166666666666666 0  0.9829629131445586 0.04166666666666666 0  0.9903926402016341 0.04166666666666666 0  0.9957224306869181 0.04166666666666666 0  0.9989294616193084 0.04166666666666666 0  1 0.04166666666666666 0  0 0.0625 0  0.001070538380698371 0.0625 0  0.004277569313095364 0.0625 0  0.009607359798386061 0.0625 0  0.01703708685546806 0.0625 0  0.02653493525245065 0.0625 0  0.03806023374436157 0.0625 0  0.05156362923366253 0.0625 0  0.06698729810778931 0.0625 0  0.08426519384873815 0.0625 0  0.1033233298543955 0.0625 0  0.1240800962605269 0.0625 0  0.1464466094067445 0.0625 0  0.1703270924499866 0.0625 0  0.1956192854956637 0.0625 0  0.2222148834902257 0.0625 0  0.2500000000000299 0.0625 0  0.2788556548905322 0.0625 0  0.308658283817491 0.0625 0  0.339280267348458 0.0625 0  0.3705904774487813 0.0625 0  0.4024548389919803 0.0625 0  0.4347369038900211 0.0625 0  0.467298435384978 0.0625 0  0.5000000000000517 0.0625 0  0.5327015646151253 0.0625 0  0.5652630961100813 0.0625 0  0.5975451610081212 0.0625 0  0.6294095225513188 0.0625 0  0.6607197326516399 0.0625 0  0.6913417161826045 0.0625 0  0.7211443451095605 0.0625 0  0.7500000000000597 0.0625 0  0.7777851165098603 0.0625 0  0.8043807145044185 0.0625 0  0.829672907550091 0.0625 0  0.8535533905933287 0.0625 0  0.8759199037395413 0.0625 0  0.8966766701456674 0.0625 0  0.9157348061513193 0.0625 0  0.9330127018922625 0.0625 0  0.9484363707663832 0.0625 0  0.961939766255678 0.0625 0  0.9734650647475827 0.0625 0  0.9829629131445586 0.0625 0  0.9903926402016341 0.0625 0  0.9957224306869181 0.0625 0  0.9989294616193084 0.0625 0  1 0.0625 0  0 0.08333333333333333 0  0.001070538380698371 0.08333333333333333 0  0.004277569313095364 0.08333333333333333 0  0.009607359798386061 0.08333333333333333 0  0.01703708685546806 0.08333333333333333 0  0.02653493525245065 0.08333333333333333 0  0.03806023374436157 0.08333333333333333 0  0.05156362923366253 0.08333333333333333 0  0.06698729810778931 0.08333333333333333 0  0.08426519384873815 0.08333333333333333 0  0.1033233298543955 0.08333333333333333 0  0.1240800962605269 0.08333333333333333 0  0.1464466094067445 0.08333333333333333 0  0.1703270924499866 0.08333333333333333 0  0.1956192854956637 0.08333333333333333 0  0.2222148834902257 0.08333333333333333 0  0.2500000000000299 0.08333333333333333 0  0.2788556548905322 0.08333333333333333 0  0.308658283817491 0.08333333333333333 0  0.339280267348458 0.08333333333333333 0  0.3705904774487813 0.08333333333333333 0  0.4024548389919803 0.08333333333333333 0  0.4347369038900211 0.08333333333333333 0  0.467298435384978 0.08333333333333333 0  0.5000000000000517 0.08333333333333333 0  0.5327015646151253 0.08333333333333333 0  0.5652630961100813 0.08333333333333333 0  0.5975451610081212 0.08333333333333333 0  0.6294095225513188 0.08333333333333333 0  0.6607197326516399 0.08333333333333333 0  0.6913417161826045 0.08333333333333333 0  0.7211443451095605 0.08333333333333333 0  0.7500000000000597 0.08333333333333333 0  0.7777851165098603 0.08333333333333333 0  0.8043807145044185 0.08333333333333333 0  0.829672907550091 0.08333333333333333 0  0.8535533905933287 0.08333333333333333 0  0.8759199037395413 0.08333333333333333 0  0.8966766701456674 0.08333333333333333 0  0.9157348061513193 0.08333333333333333 0  0.9330127018922625 0.08333333333333333 0  0.9484363707663832 0.08333333333333333 0  0.961939766255678 0.08333333333333333 0  0.9734650647475827 0.08333333333333333 0  0.9829629131445586 0.08333333333333333 0  0.9903926402016341 0.08333333333333333 0  0.9957224306869181 0.08333333333333333 0  0.9989294616193084 0.08333333333333333 0  1 0.08333333333333333 0  0 0.1041666666666667 0  0.001070538380698371 0.1041666666666667 0  0.004277569313095364 0.1041666666666667 0  0.009607359798386061 0.1041666666666667 0  0.01703708685546806 0.1041666666666667 0  0.02653493525245065 0.1041666666666667 0  0.03806023374436157 0.1041666666666667 0  0.05156362923366253 0.1041666666666667 0  0.06698729810778931 0.1041666666666667 0  0.08426519384873815 0.1041666666666667 0  0.1033233298543955 0.1041666666666667 0  0.1240800962605269 0.1041666666666667 0  0.1464466094067445 0.1041666666666667 0  0.1703270924499866 0.1041666666666667 0  0.1956192854956637 0.1041666666666667 0  0.2222148834902257 0.1041666666666667 0  0.2500000000000299 0.1041666666666667 0  0.2788556548905322 0.1041666666666667 0  0.308658283817491 0.1041666666666667 0  0.339280267348458 0.1041666666666667 0  0.3705904774487813 0.1041666666666667 0  0.4024548389919803 0.1041666666666667 0  0.4347369038900211 0.1041666666666667 0  0.467298435384978 0.1041666666666667 0  0.5000000000000517 0.1041666666666667 0  0.5327015646151253 0.1041666666666667 0  0.5652630961100813 0.1041666666666667 0  0.5975451610081212 0.1041666666666667 0  0.62
[...]
<PointData  Scalars="f_3378634"> 
<DataArray  type="Float64"  Name="f_3378634"  format="ascii">1.0000000000000009e+00  9.9907717379760208e-01  9.9631265446447770e-01  9.9171764926501271e-01  9.8530860353978189e-01  9.7710782976223520e-01  9.6713951803929044e-01  9.5541473455019366e-01  9.4194606793886082e-01  9.2675830932506775e-01  9.0985653734186756e-01  8.9125582096141109e-01  8.7096480497006956e-01  8.4900532707471643e-01  8.2547079056511452e-01  8.0041427783926256e-01  7.7393009546717673e-01  7.4617592373743280e-01  7.1725508470133714e-01  6.8734041155209036e-01  6.5663685684796735e-01  6.2527919318930747e-01  5.9342868570549556e-01  5.6125384738701045e-01  5.2887118821732615e-01  4.9639748870025707e-01  4.6396070893004115e-01  4.3166375590176503e-01  3.9959635718353009e-01  3.6787545474318989e-01  3.3661721551575996e-01  3.0591635689990881e-01  2.7589705920737279e-01  2.4669455408661597e-01  2.1842482114122408e-01  1.9124152937633709e-01  1.6529131108746353e-01  1.4071867057744378e-01  1.1768286895520254e-01  9.6333761688631919e-02  7.6816565446468837e-02  5.9271058410258336e-02  4.3824994284142473e-02  3.0589062624540427e-02  1.9653360453808139e-02  1.1086410096106059e-02  4.9367144735096681e-03  1.2355319281853443e-03  -6.0643416537911463e-16  1.0000000000000004e+00  9.9907824024003866e-01  9.9631696640889156e-01  9.9172758614057610e-01  9.8532618219966184e-01  9.7713181250927705e-01  9.6716886342742603e-01  9.5545117062715534e-01  9.4198164787826344e-01  9.2677270550527024e-01  9.0983446771111132e-01  8.9117396217752998e-01  8.7081314909511387e-01  8.4874867344397342e-01  8.2507997031752800e-01  7.9988895387491576e-01  7.7325127716458164e-01  7.4534930839424740e-01  7.1629152903188475e-01  6.8623883557732068e-01  6.5542827037443596e-01  6.2399068097202059e-01  5.9208180041084535e-01  5.5988819929467426e-01  5.2751262288683132e-01  4.9507402547488311e-01  4.6271119017805029e-01  4.3051067647015540e-01  3.9856283308540097e-01  3.6698302563232843e-01  3.3587146757349245e-01  3.0532340045052375e-01  2.7545436369541443e-01  2.4639029099733226e-01  2.1824595964251228e-01  1.9116117813422606e-01  1.6529058895489168e-01  1.4077416464179662e-01  1.1777093924124214e-01  9.6436907970572042e-02  7.6920681295075150e-02  5.9365577342757797e-02  4.3903414089354290e-02  3.0648490140520571e-02  1.9693848350321570e-02  1.1110223096347681e-02  4.9476144656660902e-03  1.2383007484932430e-03  -1.0193405052461372e-15  1.0000000000000009e+00  9.9908096468101115e-01  9.9632787194550254e-01  9.9175189981660417e-01  9.8536849059659748e-01  9.7719417387800978e-01  9.6724979493914509e-01  9.5554564586575863e-01  9.4207532931008464e-01  9.2683918823151545e-01  9.0982214529023697e-01  8.9102916012609501e-01  8.7049428332654544e-01  8.4821467101195214e-01  8.2424816558155367e-01  7.9871950140664927e-01  7.7172537863772173e-01  7.4345768875091933e-01  7.1405250297128797e-01  6.8367572785793040e-01  6.5258967770433896e-01  6.2094093349069102e-01  5.8888902920114694e-01  5.5663452175638461e-01  5.2427531317495879e-01  4.9192809990292641e-01  4.5973795934789607e-01  4.2777664633476570e-01  3.9612395554705326e-01  3.6488668126694118e-01  3.3413982315539409e-01  3.0396390113675409e-01  2.7445915652974812e-01  2.4573022972720243e-01  2.1788149552929301e-01  1.9103712030696857e-01  1.6535013665008633e-01  1.4096316194113914e-01  1.1803259829844938e-01  9.6726314812470876e-02  7.7204136266044610e-02  5.9619044239643919e-02  4.4112215310857066e-02  3.0806289521727499e-02  1.9801259478249379e-02  1.1173295635613424e-02  4.9764314270447692e-03  1.2456140276732620e-03  -1.4611388128051272e-15  1.0000000000000009e+00  9.9908515860883951e-01  9.9634444421408697e-01  9.9178826417216848e-01  9.8543033200380015e-01  9.7728371168535022e-01  9.6736399002355633e-01  9.5567792912804073e-01  9.4220681471320256e-01  9.2693808335523542e-01  9.0984422111345831e-01  8.9089601639056482e-01  8.7012604687616546e-01  8.4756874162965068e-01  8.2325159305142681e-01  7.9729648840596079e-01  7.6983944663237336e-01  7.4109601409938675e-01  7.1123243543670844e-01  6.8043693446555009e-01  6.4898859653599672e-01  6.1705938023560492e-01  5.8482307362089991e-01  5.5248937170118750e-01  5.2015836360868950e-01  4.8794430732730992e-01  4.5599063878422424e-01  4.2435509878933370e-01  3.9310142832382250e-01  3.6232028283200607e-01  3.3205619374382711e-01  3.0236698930751466e-01  2.7333361879085971e-01  2.4503266514475933e-01  2.1755318336223650e-01  1.9101026565782595e-01  1.6554616664229460e-01  1.4130574900406198e-01  1.1845216410990655e-01  9.7166700120861829e-02  7.7623707580381548e-02  5.9988931868892592e-02  4.4415063703186639e-02  3.1034960238372749e-02  1.9957286292880381e-02  1.1265357034231198e-02  5.0187351028983382e-03  1.2563938104254511e-03  -1.7812589608711453e-15  9.9999999999999956e-01  9.9909078127539619e-01  9.9636642483511417e-01  9.9183597440575377e-01  9.8551115206235174e-01  9.7740079268262725e-01  9.6750677765550386e-01  9.5583484140914099e-01  9.4236724485681278e-01  9.2705936094636943e-01  9.0988765385106751e-01  8.9080514039855796e-01  8.6979883347557574e-01  8.4692636709942515e-01  8.2224935967415924e-01  7.9585757676509783e-01  7.6792021893826135e-01  7.3866599943595257e-01  7.0831028189248424e-01  6.7706592304825741e-01  6.4522999837217787e-01  6.1300150131511943e-01  5.8057173527819506e-01  5.4816024591030887e-01  5.1587166301476028e-01  4.8381639447586566e-01  4.5213290616299801e-01  4.2086372502063296e-01  3.9005323668848113e-01  3.5977241442569002e-01  3.3003280760060383e-01  3.0086585341338029e-01  2.7233182150873103e-01  2.4447858924183632e-01  2.1737911277115637e-01  1.9114083857379108e-01  1.6589586365625761e-01  1.4179376490072376e-01  1.1900590632557131e-01  9.7730553129372372e-02  7.8153792355306312e-02  6.0454533903680441e-02  4.4797595742713546e-02  3.1326281366135293e-02  2.0158419717254693e-02  1.1385559520534574e-02  5.0746266591861489e-03  1.2707709902046768e-03  -6.9212561367085346e-16  1.0000000000000007e+00  9.9909787898621916e-01  9.9639396429593685e-01  9.9189491954275444e-01  9.8560881729894545e-01  9.7754018040049151e-01  9.6768389951477929e-01  9.5602312440387693e-01  9.4254679864721180e-01  9.2721085709966311e-01  9.0995212907962375e-01  8.9074337159658656e-01  8.6954616538478813e-01  8.4637974962980267e-01  8.2134269532053450e-01  7.9454849780118009e-01  7.6616002986970966e-01  7.3642993682881119e-01  7.0560245401360822e-01  6.7392784769777236e-01  6.4172393156986574e-01  6.0921477325436579e-01  5.7660809351429110e-01  5.4413414114192726e-01  5.1190228023112516e-01  4.8001817641121841e-01  4.4861362556775342e-01  4.1771480277812301e-01  3.8734576609035054e-01  3.5755682913716902e-01  3.2832694534234358e-01  2.9966108814491094e-01  2.7159971971886765e-01  2.4416503943347928e-01  2.1741550737780091e-01  1.9145075825666780e-01  1.6639523454822752e-01  1.4240927355821589e-01  1.1967181656561879e-01  9.8390199738284806e-02  7.8767817367198290e-02  6.0992795229509129e-02  4.5241333712614136e-02  3.1666260336684009e-02  2.0394498943365751e-02  1.1527077926439823e-02  5.1404000754441750e-03  1.2876513254587774e-03  -6.5991579136386690e-16  9.9999999999999933e-01  9.9910679950704917e-01  9.9642822146937604e-01  9.9196687485967661e-01  9.8572499762478605e-01  9.7770092029669553e-01  9.6788336655961493e-01  9.5624798314666204e-01  9.4275836766712040e-01  9.2738317390025549e-01  9.1005746462455950e-01  8.9071976253958551e-01  8.6935825873508166e-01  8.4596506646691350e-01  8.2061223684277196e-01  7.9345660545702945e-01  7.6468088405365120e-01  7.3454040530682263e-01  7.0330810589225101e-01  6.7126045757433184e-01  6.3873925100216622e-01  6.0599371663245072e-01  5.7324518713244743e-01  5.4073311474859953e-01  5.0857126333938651e-01  4.7686013274483668e-01  4.4572369667356582e-01  4.1517185903524861e-01  3.8520912364724263e-01  3.5586591494059594e-01  3.2709166764420833e-01  2.9886747451758305e-01  2.7121655320720428e-01  2.4414024267782777e-01  2.1768494213039299e-01  1.9194351862511655e-01  1.6703595368572297e-01  1.4313371988348228e-01  1.2042548531586396e-01  9.9121358981935526e-02  7.9440878062475281e-02  6.1582702605155491e-02  4.5729782654416913e-02  3.2042887545772593e-02  2.0658016519756683e-02  1.1686393783338656e-02  5.2150613064266653e-03  1.3069103983921644e-03  -1.0775138272690802e-15  9.9999999999999978e-01  9.9911802320305898e-01  9.9647063564625160e-01  9.9205406846683508e-01  9.8586222325722184e-01  9.7788534602006483e-01  9.6810640020087013e-01  9.5649447013790168e-01  9.4300648484870742e-01  9.2759107389129802e-01  9.1019828972941741e-01  8.9076385079802867e-01  8.6925035811522933e-01  8.4567962650103434e-01  8.2009775344771596e-01  7.9264892620553917e-01  7.6356071722259422e-01  7.3309565381411912e-01  7.0154676173867614e-01  6.6921134621401290e-01  6.3644413775892561e-01  6.0352248852421053e-01  5.7067874123540030e-01  5.3815809833496020e-01  5.0607807565256979e-01  4.7453383866703275e-01  4.4364063934073489e-01  4.1339346436169333e-01  3.8377930368746271e-01  3.5481074906419080e-01  3.2641274911483098e-01  2.9854682745669370e-01  2.7122262181727652e-01  2.4442611309513351e-01  2.1819503653459443e-01  1.9261816772604559e-01  1.6781325482900514e-01  1.4396291677041381e-01  1.2126587823346720e-01  9.9932573924501472e-02  8.0189536192572977e-02  6.2244509755833607e-02  4.6284123841095072e-02  3.2475718260943462e-02  2.0964676843920487e-02  1.1873996767468148e-02  5.3039047461951863e-03  1.3300278227488644e-03  -1.1870640025481801e-15  1.0000000000000009e+00  9.9913063064295293e-01  9.9651867197688992e-01  9.9215356982115765e-01  9.8601965109439649e-01  9.7809676564286097e-01  9.6835892390638223e-01  9.5677073683466851e-01  9.4328319551756445e-01  9.2784309641628804e-01  9.1038952186535149e-01  8.9087166319743538e-01  8.6925341298117675e-01  8.4553765272369397e-01  8.1979871190617837e-01  7.9215871404284666e-01  7.6284337739522967e-01  7.3215115796699715e-01  7.0038576791360063e-01  6.6786278327748649e-01  6.3493330773517664e-01  6.0190510315773837e-01  5.6901913350765532e-01  5.3652231588916133e-01  5.0453471465025457e-01  4.7314610254894529e-01  4.4246243704954324e-01  4.1246606841084715e-01  3.8312939201235968e-01  3.5445011730503528e-01  3.2633487655096999e-01  2.9873086946362387e-01  2.7163836234148253e-01  2.4503372648496066e-01  2.1895029168268593e-01  1.9347671837700911e-01  1.6873181740058829e-01  1.4490316075952711e-01  1.2219781152784266e-01  1.0082619145295510e-01  8.1014067226761008e-02  6.2973571225438785e-02  4.6895712491180679e-02  3.2953789453932208e-02  2.1303148819865184e-02  1.2080403342234333e-02  5.4011648625767470e-03  1.3552139227087062e-03  -6.3286436213180873e-16  1.0000000000000004e+00  9.9914538513562323e-01  9.9657488488198998e-01  9.9227009351791151e-01  9.8620374475546191e-01  9.7834305072380578e-01  9.6865139345983287e-01  9.5708713524842060e-01  9.4360111857084727e-01  9.2813766655744023e-01  9.1064252347936792e-01  8.9105872713217471e-01  8.6936367009773274e-01  8.4556270947086576e-01  8.1972472269189500e-01  7.9198474765891635e-01  7.6255048729355579e-01  7.3172754837665810e-01  6.9985221977630796e-01  6.6724476632453589e-01  6.3424609501913154e-01  6.0118685813326267e-01  5.6831531390190759e-01  5.3587644439054849e-01  5.0399139516723668e-01  4.7274458443071976e-01  4.4223255580688359e-01  4.1242787914429174e-01  3.8329180902109716e-01  3.5481065532299777e-01  3.2687936093351927e-01  2.9943644427364474e-01  2.7247732300661404e-01  2.4597480283601475e-01  2.1996240031528227e-01  1.9453107796890973e-01  1.6980308198023408e-01  1.4596494062551132e-01  1.2322492031356415e-01  1.0179686788932685e-01  8.1902766720116524e-02  6.3755296179622736e-02  4.7548655818707874e-02  3.3462069690894831e-02  2.1661558484263609e-02  1.2298279847808244e-02  5.5036649106908180e-03  1.3817343385989585e-03  -1.2971818718718401e-15  1.0000000000000004e+00  9.9916251364522357e-01  9.9663955254869041e-01  9.9240270923658158e-01  9.8641162237443369e-01  9.7862027830503684e-01  9.6898136225036391e-01  9.5744710539927225e-01  9.4396699067128664e-01  9.2848787103339481e-01  9.1096072448551502e-01  8.9134309650715970e-01  8.6960319790146701e-01  8.4576205581372099e-01  8.1989189264173346e-01  7.9213141980321999e-01  7.6268179773472367e-01  7.3183505217539235e-01  6.9995115938172647e-01  6.6735613576270258e-01  6.3438413964736695e-01  6.0137288158535640e-01  5.6857373478747208e-01  5.3622777999322779e-01  5.0445568943140773e-01  4.7333659049328325e-01  4.4295793254134941e-01  4.1328561962994659e-01  3.8427345328390072e-01  3.5590000966420998e-01  3.2805509746367145e-01  3.0067423037017627e-01  2.7375254341391503e-01  2.4726498915942571e-01  2.2124919858336495e-01  1.9579981209737943e-01  1.7104314065532022e-01  1.4716283460099183e-01  1.2436454820778818e-01  1.0286251989539658e-01  8.2875115968119792e-02  6.4610768744431363e-02  4.8264226004661626e-02  3.4020377295414253e-02  2.2056234863704380e-02  1.2538612682150924e-02  5.6167893238122544e-03  1.4110316727213887e-03  -5.2675997816922611e-16  1.0000000000000004e+00  9.9918030306729122e-01  9.9670737521546349e-01  9.9254330686478121e-01  9.8663441531232055e-01  9.7892084901714160e-01  9.6934395757873659e-01  9.5784953842080367e-01  9.4438699083856104e-01  9.2890769016172847e-01  9.1136782703438102e-01  8.9173582009451202e-01  8.6999524998527922e-01  8.4616433163090532e-01  8.2032021599798122e-01  7.9260893358900530e-01  7.6323292816368393e-01  7.3246951548258388e-01  7.0067589156552090e-01  6.6818687567340207e-01  6.3533112768364930e-01  6.0244370939219383e-01  5.6977340926418096e-01  5.3755475674900943e-01  5.0590656655791078e-01  4.7490255052585534e-01  4.4462152342115796e-01  4.1502582691382034e-01  3.8606546207835307e-01  3.5771474572830669e-01  3.2986441510633202e-01  3.0245243185358006e-01  2.7547784790037722e-01  2.4892260040211886e-01  2.2283153594187771e-01  1.9730397632508412e-01  1.7247010709201940e-01  1.4851145335476867e-01  1.2562948041297312e-01  1.0403528680028655e-01  8.3938672859445534e-02  6.5541936593713657e-02  4.9039925127383303e-02  3.4623511200813452e-02  2.2481511249312323e-02  1.2797192395228259e-02  5.7383803212199139e-03  1.4424602995283696e-03  -3.7112316762003640e-16  1.0000000000000004e+00  9.9919958057103031e-01  9.9678114176338228e-01  9.9269728173821969e-01  9.8688034190239737e-01  9.7925530161381191e-01  9.6975113828734771e-01  9.5830696473814592e-01  9.4487259727927109e-01  9.2940622711136811e-01  9.1187336934413166e-01  8.9225131934826085e-01  8.7053999737692545e-01  8.4677010981989242e-01  8.2101803289556241e-01  7.9342531384345139e-01  7.6420204094404365e-01  7.3361455982051782e-01  7.0200705734765567e-01  6.6971436069453116e-01  6.3705849559746841e-01  6.0436429972304706e-01  5.7187569123536675e-01  5.3981715348959780e-01  5.0830436074452878e-01  4.7740540910425222e-01  4.4719078317121552e-01  4.1762214874951381e-01  3.8864909571522527e-01  3.6024455420723006e-01  3.3230547279290390e-01  3.0477738217056760e-01  2.7766673375978407e-01  2.5096637791590781e-01  2.2473117265745721e-01  1.9906679150200943e-01  1.7410850697036001e-01  1.5003635536578547e-01  1.2704651471577780e-01  1.0533863798729905e-01  8.5113236376786944e-02  6.6566134930570897e-02  4.9891120438335768e-02  3.5284438891400836e-02  2.2947188231341589e-02  1.3080383544615735e-02  5.8717675412016460e-03  1.4770468331786262e-03  -1.6322007493260704e-15  9.9999999999999989e-01  9.9922085596433208e-01  9.9686217324002402e-01  9.9286574604174527e-01  9.8714937967903815e-01  9.7962305093540381e-01  9.7020339613495066e-01  9.5882265546058798e-01  9.4543082994471073e-01  9.2999321568308380e-01  9.1248739019948588e-01  8.9290419304689705e-01  8.7125601200885283e-01  8.4758649694826094e-01  8.2197949236977397e-01  7.9457692929163248e-01  7.6558418026014885e-01  7.3525533046584890e-01  7.0391941894244037e-01  6.7190644973854097e-01  6.3952614646005301e-01  6.0708856305799896e-01  5.7483024718842279e-01  5.4296278535761555e-01  5.1159756690318559e-01  4.8079697930001541e-01  4.5062320924781091e-01  4.2103983246891141e-01  3.9199892559030636e-01  3.6347396330801945e-01  3.3537263706134823e-01  3.0765279693553421e-01  2.8033062564394734e-01  2.5341326193856351e-01  2.2696833140985734e-01  2.0110993007378930e-01  1.7597914231526759e-01  1.5175342762365390e-01  1.2862077918864628e-01  1.0676800638323537e-01  8.6385949066049045e-02  6.7664114164064787e-02  5.0794740509149276e-02  3.5979603804385960e-02  2.3432423761815889e-02  1.3372461199240330e-02  6.0078670696622205e-03  1.5120399791355551e-03  -1.3156897066592452e-15  9.9999999999999956e-01  9.9924243041417882e-01  9.9694506530089155e-01  9.9303999341030946e-01  9.8743125860422520e-01  9.8001427493856763e-01  9.7069353508833212e-01  9.5939422971590760e-01  9.4606614246188236e-01  9.3068138788933030e-01  9.1323000041167401e-01  8.9371800850095362e-01  8.7217154499344729e-01  8.4864544832576416e-01  8.2323230236975253e-01  7.9607472454897354e-01  7.6737428934526730e-01  7.3737731134657003e-01  7.0638600000689378e-01  6.7472505047248421e-01  6.4268732631952508e-01  6.1056305593085514e-01  5.7857925755707906e-01  5.4693202926984674e-01  5.1572741647178166e-01  4.8502215825611278e-01  4.5486989396406408e-01  4.2523836929826497e-01  3.9608426631452387e-01  3.6738248125365086e-01  3.3905597354755240e-01  3.1107882890268163e-01  2.8347744363845839e-01  2.5627704915909527e-01  2.2956039724548072e-01  2.0345167470818046e-01  1.7809757912660965e-01  1.5367208029478283e-01  1.3035330227390288e-01  1.0831755822209850e-01  8.7747551876583882e-02  6.8825119460567394e-02  5.1740176297897782e-02  3.6700499238982477e-02  2.3932627837991251e-02  1.3672947956266513e-02  6.1480388936612108e-03  1.5480863674949795e-03  -4.8999897538046334e-16  9.9999999999999922e-01  9.9926452477050154e-01  9.9703030458796194e-01  9.9322066813889609e-01  9.8772689722995144e-01  9.8043033538777236e-01  9.7122345711825231e-01  9.6002436649151413e-01  9.4678240169730254e-01  9.3147619590760777e-01  9.1410806912573828e-01  8.9469951817663496e-01  8.7329168183917916e-01  8.4995130951993025e-01  8.2477911876058807e-01  7.9791914690934396e-01  7.6956605479848728e-01  7.3995951096831414e-01  7.0937882936132468e-01  6.7813019449732925e-01  6.4649216001114829e-01  6.1473079582175927e-01  5.8306088480371543e-01  5.5166114017618262e-01  5.2063095258949066e-01  4.9002170423388036e-01  4.5987786565613520e-01  4.3017316537501565e-01  4.0087001303455211e-01  3.7194474599849242e-01  3.4334129190600349e-01  3.1505171206691746e-01  2.8711123922694309e-01  2.5956789225031662e-01  2.3252117046679938e-01  2.0610677239355205e-01  1.8047769059274368e-01  1.5580598900223291e-01  1.3226211204264410e-01  1.1001202935652951e-01  8.9228833662030674e-02  7.0082616508961942e-02  5.2761031519882512e-02  3.7478009653065983e-02  2.4472641501147002e-02  1.3998344510330935e-02  6.3005913016819862e-03  1.5875580285236121e-03  -1.4354377284785756e-15  1.0000000000000009e+00  9.9928719240227848e-01  9.9711812378329323e-01  9.9340800086635950e-01  9.8803632452783141e-01  9.8087147525245522e-01  9.7179454967389989e-01  9.6071652542705999e-01  9.4758578856959796e-01  9.3238676884861238e-01  9.1513339365735713e-01  8.9586228447664040e-01  8.7462995805152988e-01  8.5151561376654661e-01  8.2662766371356411e-01  8.0011135583578530e-01  7.7215447897269829e-01  7.4298630186480463e-01  7.1286787453896061e-01  6.8208188688266869e-01  6.5089098306973758e-01  6.1953413883780961e-01  5.8821194870650284e-01  5.5708483384615981e-01  5.2624276147850191e-01  4.9573387488005904e-01  4.6559217120082874e-01  4.3579697309070731e-01  4.0631790341762752e-01  3.7713349178412509e-01  3.4821298969920894e-01  3.1956472686871357e-01  2.9123344534496809e-01  2.6329239430218898e-01  2.3586054320303534e-01  2.0908614815939819e-01  1.8312986745148641e-01  1.5816388911558107e-01  1.3435246564726455e-01  1.1185062270102186e-01  9.0821397470017148e-02  7.1422875562402677e-02  5.3840317776399964e-02  3.8294266432919138e-02  2.503563769232376