<?xml version="1.0"?>
<VTKFile type="UnstructuredGrid"  version="0.1"  >
<UnstructuredGrid>
<Piece  NumberOfPoints="2401" NumberOfCells="4608">
<Points>
<DataArray  type="Float64"  NumberOfComponents="3"  format="ascii">0 0 0  0.001070538380698371 0 0  0.004277569313095364 0 0  0.009607359798386061 0 0  0.01703708685546806 0 0  0.02653493525245065 0 0  0.03806023374436157 0 0  0.05156362923366253 0 0  0.06698729810778931 0 0  0.08426519384873815 0 0  0.1033233298543955 0 0  0.1240800962605269 0 0  0.1464466094067445 0 0  0.1703270924499866 0 0  0.1956192854956637 0 0  0.2222148834902257 0 0  0.2500000000000299 0 0  0.2788556548905322 0 0  0.308658283817491 0 0  0.339280267348458 0 0  0.3705904774487813 0 0  0.4024548389919803 0 0  0.4347369038900211 0 0  0.467298435384978 0 0  0.5000000000000517 0 0  0.5327015646151253 0 0  0.5652630961100813 0 0  0.5975451610081212 0 0  0.6294095225513188 0 0  0.6607197326516399 0 0  0.6913417161826045 0 0  0.7211443451095605 0 0  0.7500000000000597 0 0  0.7777851165098603 0 0  0.8043807145044185 0 0  0.829672907550091 0 0  0.8535533905933287 0 0  0.8759199037395413 0 0  0.8966766701456674 0 0  0.9157348061513193 0 0  0.9330127018922625 0 0  0.9484363707663832 0 0  0.961939766255678 0 0  0.9734650647475827 0 0  0.9829629131445586 0 0  0.9903926402016341 0 0  0.9957224306869181 0 0  0.9989294616193084 0 0  1 0 0  0 0.02083333333333333 0  0.001070538380698371 0.02083333333333333 0  0.004277569313095364 0.02083333333333333 0  0.009607359798386061 0.02083333333333333 0  0.01703708685546806 0.02083333333333333 0  0.02653493525245065 0.02083333333333333 0  0.03806023374436157 0.02083333333333333 0  0.05156362923366253 0.02083333333333333 0  0.06698729810778931 0.02083333333333333 0  0.08426519384873815 0.02083333333333333 0  0.1033233298543955 0.02083333333333333 0  0.1240800962605269 0.02083333333333333 0  0.1464466094067445 0.02083333333333333 0  0.1703270924499866 0.02083333333333333 0  0.1956192854956637 0.02083333333333333 0  0.2222148834902257 0.02083333333333333 0  0.2500000000000299 0.02083333333333333 0  0.2788556548905322 0.02083333333333333 0  0.308658283817491 0.02083333333333333 0  0.339280267348458 0.02083333333333333 0  0.3705904774487813 0.02083333333333333 0  0.4024548389919803 0.02083333333333333 0  0.4347369038900211 0.02083333333333333 0  0.467298435384978 0.02083333333333333 0  0.5000000000000517 0.02083333333333333 0  0.5327015646151253 0.02083333333333333 0  0.5652630961100813 0.02083333333333333 0  0.5975451610081212 0.02083333333333333 0  0.6294095225513188 0.02083333333333333 0  0.6607197326516399 0.02083333333333333 0  0.6913417161826045 0.02083333333333333 0  0.7211443451095605 0.02083333333333333 0  0.7500000000000597 0.02083333333333333 0  0.7777851165098603 0.02083333333333333 0  0.8043807145044185 0.02083333333333333 0  0.829672907550091 0.02083333333333333 0  0.8535533905933287 0.02083333333333333 0  0.8759199037395413 0.02083333333333333 0  0.8966766701456674 0.02083333333333333 0  0.9157348061513193 0.02083333333333333 0  0.9330127018922625 0.02083333333333333 0  0.9484363707663832 0.02083333333333333 0  0.961939766255678 0.02083333333333333 0  0.9734650647475827 0.02083333333333333 0  0.9829629131445586 0.02083333333333333 0  0.9903926402016341 0.02083333333333333 0  0.9957224306869181 0.02083333333333333 0  0.9989294616193084 0.02083333333333333 0  1 0.02083333333333333 0  0 0.04166666666666666 0  0.001070538380698371 0.04166666666666666 0  0.004277569313095364 0.04166666666666666 0  0.009607359798386061 0.04166666666666666 0  0.01703708685546806 0.04166666666666666 0  0.02653493525245065 0.04166666666666666 0  0.03806023374436157 0.04166666666666666 0  0.05156362923366253 0.04166666666666666 0  0.06698729810778931 0.04166666666666666 0  0.08426519384873815 0.04166666666666666 0  0.1033233298543955 0.04166666666666666 0  0.1240800962605269 0.04166666666666666 0  0.1464466094067445 0.04166666666666666 0  0.1703270924499866 0.04166666666666666 0  0.1956192854956637 0.04166666666666666 0  0.2222148834902257 0.04166666666666666 0  0.2500000000000299 0.04166666666666666 0  0.2788556548905322 0.04166666666666666 0  0.308658283817491 0.04166666666666666 0  0.339280267348458 0.04166666666666666 0  0.3705904774487813 0.04166666666666666 0  0.4024548389919803 0.04166666666666666 0  0.4347369038900211 0.04166666666666666 0  0.467298435384978 0.04166666666666666 0  0.5000000000000517 0.04166666666666666 0  0.5327015646151253 0.04166666666666666 0  0.5652630961100813 0.04166666666666666 0  0.5975451610081212 0.04166666666666666 0  0.6294095225513188 0.04166666666666666 0  0.6607197326516399 0.04166666666666666 0  0.6913417161826045 0.04166666666666666 0  0.7211443451095605 0.04166666666666666 0  0.7500000000000597 0.04166666666666666 0  0.7777851165098603 0.04166666666666666 0  0.8043807145044185 0.04166666666666666 0  0.829672907550091 0.04166666666666666 0  0.8535533905933287 0.04166666666666666 0  0.8759199037395413 0.04166666666666666 0  0.8966766701456674 0.04166666666666666 0  0.9157348061513193 0.04166666666666666 0  0.9330127018922625 0.04166666666666666 0  0.9484363707663832 0.04166666666666666 0  0.961939766255678 0.04166666666666666 0  0.9734650647475827 0.04166666666666666 0  0.9829629131445586 0.04166666666666666 0  0.9903926402016341 0.04166666666666666 0  0.9957224306869181 0.04166666666666666 0  0.9989294616193084 0.04166666666666666 0  1 0.04166666666666666 0  0 0.0625 0  0.001070538380698371 0.0625 0  0.004277569313095364 0.0625 0  0.009607359798386061 0.0625 0  0.01703708685546806 0.0625 0  0.02653493525245065 0.0625 0  0.03806023374436157 0.0625 0  0.05156362923366253 0.0625 0  0.06698729810778931 0.0625 0  0.08426519384873815 0.0625 0  0.1033233298543955 0.0625 0  0.1240800962605269 0.0625 0  0.1464466094067445 0.0625 0  0.1703270924499866 0.0625 0  0.1956192854956637 0.0625 0  0.2222148834902257 0.0625 0  0.2500000000000299 0.0625 0  0.2788556548905322 0.0625 0  0.308658283817491 0.0625 0  0.339280267348458 0.0625 0  0.3705904774487813 0.0625 0  0.4024548389919803 0.0625 0  0.4347369038900211 0.0625 0  0.467298435384978 0.0625 0  0.5000000000000517 0.0625 0  0.5327015646151253 0.0625 0  0.5652630961100813 0.0625 0  0.5975451610081212 0.0625 0  0.6294095225513188 0.0625 0  0.6607197326516399 0.0625 0  0.6913417161826045 0.0625 0  0.7211443451095605 0.0625 0  0.7500000000000597 0.0625 0  0.7777851165098603 0.0625 0  0.8043807145044185 0.0625 0  0.829672907550091 0.0625 0  0.8535533905933287 0.0625 0  0.8759199037395413 0.0625 0  0.8966766701456674 0.0625 0  0.9157348061513193 0.0625 0  0.9330127018922625 0.0625 0  0.9484363707663832 0.0625 0  0.961939766255678 0.0625 0  0.9734650647475827 0.0625 0  0.9829629131445586 0.0625 0  0.9903926402016341 0.0625 0  0.9957224306869181 0.0625 0  0.9989294616193084 0.0625 0  1 0.0625 0  0 0.08333333333333333 0  0.001070538380698371 0.08333333333333333 0  0.004277569313095364 0.08333333333333333 0  0.009607359798386061 0.08333333333333333 0  0.01703708685546806 0.08333333333333333 0  0.02653493525245065 0.08333333333333333 0  0.03806023374436157 0.08333333333333333 0  0.05156362923366253 0.08333333333333333 0  0.06698729810778931 0.08333333333333333 0  0.08426519384873815 0.08333333333333333 0  0.1033233298543955 0.08333333333333333 0  0.1240800962605269 0.08333333333333333 0  0.1464466094067445 0.08333333333333333 0  0.1703270924499866 0.08333333333333333 0  0.1956192854956637 0.08333333333333333 0  0.2222148834902257 0.08333333333333333 0  0.2500000000000299 0.08333333333333333 0  0.2788556548905322 0.08333333333333333 0  0.308658283817491 0.08333333333333333 0  0.339280267348458 0.08333333333333333 0  0.3705904774487813 0.08333333333333333 0  0.4024548389919803 0.08333333333333333 0  0.4347369038900211 0.08333333333333333 0  0.467298435384978 0.08333333333333333 0  0.5000000000000517 0.08333333333333333 0  0.5327015646151253 0.08333333333333333 0  0.5652630961100813 0.08333333333333333 0  0.5975451610081212 0.08333333333333333 0  0.6294095225513188 0.08333333333333333 0  0.6607197326516399 0.08333333333333333 0  0.6913417161826045 0.08333333333333333 0  0.7211443451095605 0.08333333333333333 0  0.7500000000000597 0.08333333333333333 0  0.7777851165098603 0.08333333333333333 0  0.8043807145044185 0.08333333333333333 0  0.829672907550091 0.08333333333333333 0  0.8535533905933287 0.08333333333333333 0  0.8759199037395413 0.08333333333333333 0  0.8966766701456674 0.08333333333333333 0  0.9157348061513193 0.08333333333333333 0  0.9330127018922625 0.08333333333333333 0  0.9484363707663832 0.08333333333333333 0  0.961939766255678 0.08333333333333333 0  0.9734650647475827 0.08333333333333333 0  0.9829629131445586 0.08333333333333333 0  0.9903926402016341 0.08333333333333333 0  0.9957224306869181 0.08333333333333333 0  0.9989294616193084 0.08333333333333333 0  1 0.08333333333333333 0  0 0.1041666666666667 0  0.001070538380698371 0.1041666666666667 0  0.004277569313095364 0.1041666666666667 0  0.009607359798386061 0.1041666666666667 0  0.01703708685546806 0.1041666666666667 0  0.02653493525245065 0.1041666666666667 0  0.03806023374436157 0.1041666666666667 0  0.05156362923366253 0.1041666666666667 0  0.06698729810778931 0.1041666666666667 0  0.08426519384873815 0.1041666666666667 0  0.1033233298543955 0.1041666666666667 0  0.1240800962605269 0.1041666666666667 0  0.1464466094067445 0.1041666666666667 0  0.1703270924499866 0.1041666666666667 0  0.1956192854956637 0.1041666666666667 0  0.2222148834902257 0.1041666666666667 0  0.2500000000000299 0.1041666666666667 0  0.2788556548905322 0.1041666666666667 0  0.308658283817491 0.1041666666666667 0  0.339280267348458 0.1041666666666667 0  0.3705904774487813 0.1041666666666667 0  0.4024548389919803 0.1041666666666667 0  0.4347369038900211 0.1041666666666667 0  0.467298435384978 0.1041666666666667 0  0.5000000000000517 0.1041666666666667 0  0.5327015646151253 0.1041666666666667 0  0.5652630961100813 0.1041666666666667 0  0.5975451610081212 0.1041666666666667 0  0.62
[...]
<CellData  Scalars="f_831399"> 
<DataArray  type="Float64"  Name="f_831399"  format="ascii">5.0946564723484622e-01   6.2385620135272069e-01   7.8101906817955480e-01   6.5585515361823665e-01   2.1198042522700811e+00   9.1073531134660402e-01   2.9800707180818269e+00   2.5521894339023161e+00   2.6965015855068204e+00   1.9646321257606412e+00   3.5534484114724880e+00   2.8826333686804708e+00   7.5902516564765135e+00   6.8581819545515375e+00   4.4980019893109384e+00   6.0335638881648972e+00   3.3420069510637700e+00   2.0126152440612302e+00   6.8871761964423879e+00   5.1013135161809453e+00   9.1761008587889066e+00   9.5190516538801013e+00   6.9916894886309340e+00   7.9272650295698890e+00   1.1698688680068180e+01   9.5833964198036359e+00   5.4904778154509088e+00   8.1033603399159588e+00   1.6186647939360633e+01   1.0369026176414470e+01   1.6497228351135302e+01   1.8543174037117087e+01   8.3253197820509008e+00   6.4103672261727169e+00   1.2438249161983586e+01   8.7414310661829937e+00   1.3021672957735788e+01   1.2313208474841993e+01   6.0287996331612685e+00   3.4811384564730639e+00   1.5584422742461015e+01   8.0554515969366491e+00   1.6943512762347442e+01   1.7983440290236420e+01   8.1020139603237951e+00   6.8340326247412992e+00   1.1103959946756232e+01   8.8192646929039178e+00   9.8403705131277857e+00   9.2957239175771633e+00   8.4222193284870155e+00   6.2747034297474373e+00   6.7026548533467123e+00   6.5960433081537628e+00   6.4955306254328580e+00   5.0579769312113072e+00   8.1080442159683255e+00   6.3509047315730998e+00   5.1136549176672785e+00   7.5050506362418892e+00   3.8525709420654199e+00   4.5015846347466715e+00   6.9005971454295993e+00   5.3535642079843200e+00   5.2237177995048052e+00   6.2097114834645533e+00   3.3877345486990897e+00   3.5429082560134559e+00   9.5520036916017030e+00   5.9486757820515423e+00   1.0244697885087646e+01   1.0358257730329333e+01   5.2111779464822492e+00   4.8925240515283246e+00   8.6044654702812231e+00   7.5786184203353484e+00   5.8474199443500510e+00   7.1751556656362219e+00   1.9782056736512879e+00   1.4153600687507999e+00   1.6987437264786980e+00   1.2120943323247988e+00   1.7393541119738354e+00   1.3379595259707844e+00   1.1401430169998343e+00   9.1288689461759454e-01   5.4789491799229106e-01   6.4175421521836440e-01   6.4909296488647494e-01   4.5770153959554127e-01   8.3580249964940490e-01   8.6071720900502202e-01   8.9309770007795330e-01   1.0513235719593204e+00   1.2260518345164544e+00   1.3936674362458281e+00   8.4078987492606494e-01   1.2629739714480475e+00   6.9231311747935409e-01   9.1444585475866413e-01   6.0008707266115524e-01   7.3889675801412935e-01   1.2442107101068489e+00   7.8607812011166767e-01   2.2976796556965153e+00   2.3206920413792989e+00   4.2333837390609386e+00   4.2269113093416069e+00   8.2935405983234034e+00   6.1002811476637921e+00   4.4822294210065330e+00   6.7761661304002416e+00   7.7159779730896072e-01   9.7399743110095482e-01   9.2292139141564427e+00   6.1229367667082073e+00   1.1028554654132611e+01   1.2661428672668166e+01   8.6692480054165788e+00   9.1666468244420507e+00   1.1227188684410422e+01   1.2289197222849648e+01   1.4188100329119445e+01   1.1044932144082503e+01   1.3471615529112119e+01   2.0904285346766301e+01   1.4858915461716970e+01   1.2681102010686374e+01   8.2644497083513055e+00   1.4204805055268091e+01   1.0109852305594490e+01   1.1423829800531079e+01   3.9915989073031821e+00   8.7842023867353358e+00   1.8677441157567625e+00   2.1617151021400027e+00   7.5326929894540813e+00   3.8754449078336259e+00   9.9946675316084104e+00   9.1535444813506803e+00   7.3798820978546349e+00   7.4285881848189543e+00   6.8851550245901123e+00   7.3442326917910066e+00   5.5872157192394658e+00   6.5302227588641122e+00   4.8803273100524178e+00   5.5661220331080266e+00   6.0894189145931810e+00   6.4398863676997724e+00   2.6851966468195609e+00   4.3022755961215493e+00   9.8020300128424509e+00   8.1812797239603832e+00   9.6001334342720792e+00   1.1700011317205158e+01   4.8158710455444771e+00   6.2390315017844813e+00   9.2263775058768989e+00   8.8075572568583116e+00   5.3961745258674760e+00   8.8245986679747670e+00   1.7436759337723802e+00   2.2710064701762742e+00   8.3589815024747907e+00   6.0047355568110525e+00   8.9849329884604625e+00   1.0393942459503121e+01   5.4022935075608371e+00   5.6744120563998619e+00   6.7225076260244876e+00   6.9555693723908911e+00   4.1760104501189490e+00   4.9289516598149676e+00   8.0650304361165914e-01   7.5306857035547570e-01   8.6868251920736039e-01   7.5193011112910413e-01   7.2170383284318806e-01   7.2370589333398760e-01   8.5273896205352884e-01   7.8705955979006159e-01   8.3763836691682736e-01   8.2744630966635291e-01   6.3894465896041019e-01   7.9402435699679230e-01   6.5362179839858903e-01   8.0315997909522041e-01   7.3359268645561548e-01   8.1346183962985308e-01   2.4300987324550931e+00   2.7449161322326181e+00   5.1805926012819645e+00   7.0919803481815551e+00   4.8294245666022881e+00   6.8710197670899369e+00   4.6070395079314581e+00   6.5674467357648414e+00   4.1507261654424683e+00   6.1536498809564257e+00   4.0432802752611448e+00   4.9503998396007995e+00   4.9543763612609615e+00   6.2893012028346389e+00   6.5246472831561411e+00   5.2070671502882915e+00   3.1865996378814461e+00   4.9178478859353731e+00   1.4601784943708613e+00   1.9396466502316003e+00   8.5645855939142397e+00   4.9995520214293681e+00   9.2417586944987704e+00   8.5748338284112773e+00   1.0238414325619852e+01   1.1284164189492598e+01   1.5029879916596139e+01   1.0526198449254609e+01   1.2757414570497394e+01   1.5937671079948053e+01   2.2335369809609343e+01   1.5632308308562042e+01   1.5015967995510774e+01   2.3125459930464768e+01   1.7305942180671874e+01   1.4652099543267733e+01   1.6916445413113269e+01   1.6164027240090366e+01   1.0035202118576347e+01   1.5474731898666063e+01   2.7412124025128541e+00   3.5267707113336089e+00   3.7559115605187277e+00   2.4114826833708789e+00   9.6192043215027265e+00   7.2534663558714882e+00   9.5929145223095826e+00   1.0925935231470120e+01   1.0936986510017356e+01   1.2937308605302819e+01   8.4826787899895457e+00   1.0848262529202408e+01   1.0361900844270714e+01   1.1225377010673489e+01   8.4462050910191682e+00   1.0654318634533142e+01   4.1129912758987031e+00   6.8697522534084916e+00   1.1112562952291210e+01   8.4118122280623613e+00   1.1888253134453933e+01   1.2785977488646962e+01   6.5141050220215728e+00   6.7967327819337360e+00   1.1473807724301407e+01   1.0429576406424626e+01   6.8140228644063576e+00   9.8267573574035438e+00   1.5088300041533478e+00   1.9468948863744053e+00   8.7030669757064523e+00   5.9465052015138467e+00   1.0749836835156522e+01   1.1561163610322838e+01   6.3906316397697349e+00   7.1673995654084068e+00   4.9578008174819690e+00   6.8397999125238291e+00   4.2289011394093521e+00   4.2517416286364025e+00   4.5306097642489407e+00   5.3043377766716056e+00   5.3934493416511149e+00   7.3254821332130149e+00   5.5472850315936135e+00   8.0619811781210622e+00   5.3246719119719028e+00   8.0149377254481191e+00   4.9375874172113257e+00   7.5821299505576691e+00   4.5116766057015498e+00   6.9862691326731987e+00   4.1269570878863737e+00   6.3728623552657089e+00   4.0753559181159584e+00   5.9903933753259659e+00   4.1074463874684897e+00   6.1591614717872920e+00   9.3452957739719782e+00   1.0927730709403370e+01   8.9901848245041478e+00   1.0028108536682558e+01   8.7506078006099823e+00   9.5131454875197026e+00   8.4399076638372819e+00   9.3092137558942429e+00   7.3431749272905087e+00   8.9588059887170797e+00   6.9826344665216356e+00   7.5722874723548310e+00   5.2197298227880067e+00   6.8563377699155561e+00   4.0256585744511941e+00   4.3911139993930801e+00   3.7680990594608113e+00   2.7521431736869491e+00   7.0658807910990138e+00   8.1145485554109023e+00   8.4440698181438023e+00   8.4283002889878524e+00   1.0289322384634955e+01   6.0807569294699624e+00   1.1213964194958773e+01   1.3864755379654730e+01   1.7494254702811055e+01   1.1590286480072104e+01   1.5235098838173425e+01   1.9445625639977603e+01   2.4972073119848758e+01   1.7427342825872508e+01   1.6973375976725073e+01   2.5135956081375799e+01   1.3213628868198493e+01   1.4713279593363126e+01   1.0698707245671276e+01   9.3871515056191068e+00   3.4763300794346308e+00   4.9619628606677013e+00   2.8876573043678486e+00   2.9333376286184181e+00   5.3726079859050726e+00   3.0500769548728748e+00   9.7662200911430990e+00   8.6097766635682262e+00   1.0198433285490296e+01   1.1043407309096134e+01   1.0883842296060342e+01   1.2846582124682730e+01   1.1171882418659861e+01   1.4290651322486898e+01   9.4297702688127973e+00   1.2053050938104832e+01   5.3452362026603311e+00   8.0184536862665432e+00   1.0057156503441320e+01   6.9554031435837178e+00   1.1288425326173115e+01   1.1410219937853538e+01   6.5831630733796365e+00   6.3701110921906468e+00   1.1167516743226876e+01   1.0025801782527587e+01   6.7304333675498809e+00   9.1269651684262740e+00   1.4532340783101989e+00   1.7407690249146366e+00   8.4890872557503876e+00   5.3740194078400982e+00   1.1870368808178009e+01   1.1811285112754977e+01   7.9848375809453422e+00   8.3698652560572402e+00   6.9566396659207870e+00   1.0649534026487785e+01   6.2135804677182378e+00   6.7531984019830338e+00   8.9187967949660223e+00   9.5851001489640950e+00   1.1081222293853024e+01   1.1615703806482834e+01   1.1760552062434545e+01   1.2728585613815664e+01   1.1487235402634255e+01   1.2614346170117493e+01   1.0744676686403192e+01   1.1853512897485706e+01   9.8365337916938778e+00   1.0828433127189919e+01   9.0027820787736683e+00   9.7774785392265340e+00   8.6836089915415737e+00   8.9836735922832744e+00   1.2821161324983297e+01   1.0937065075678964e+01   6.9664784016142800e+00   8.0051654348738506e+00   6.6883054217540865e+00   7.3790778763121700e+00   6.5855227462548287e+00   7.2743258535325044e+00   6.5912905189249669e+00   7.2628963074486990e+00   6.5756196611379174e+00   7.1547055627859129e+00   6.2094000778250358e+00   6.6943432251358574e+00   6.1027469196377320e+00   6.0752168389093448e+00   3.8190481789841604e+00   5.7373598328684841e+00   4.6423610478305086e+00   4.7748879970357949e+00   8.5605633967860282e+00   5.3897309897206336e+00   6.8361786935141264e+00   8.2894811646102049e+00   5.8931329905789918e+00   5.4410995774962503e+00   1.4653778286924211e+01   9.4824664715117812e+00   1.4007876589328816e+01   1.9990830410086922e+01   2.0411600303149697e+01   1.4057720609377633e+01   1.6196921659468451e+01   2.1385639205578187e+01   2.6473838537573464e+01   1.8309200628456438e+01   1.3518291217321066e+01   2.0707083195710364e+01   8.6668655591371611e+00   9.7511856833344410e+00   8.7555334304562908e+00   1.1854004629469605e+01   1.3083100143762138e+01   1.8899219615395872e+01   7.6920470140262918e+00   1.4693494499058454e+01   1.2746310421130886e+01   9.8882994256184755e+00   1.6380049686281311e+01   1.6328330099853812e+01   1.9287547104068292e+01   1.7999582670583383e+01   2.1365387763144621e+01   2.0610391228286304e+01   1.7496850835929582e+01   2.0143544560285974e+01   1.1821428551448696e+01   1.5514395487337191e+01   8.2215911942971811e+00   8.8721575305280300e+00   8.9999677208364446e+00   8.6806157695934463e+00   5.8846595994763264e+00   5.1591119785853028e+00   9.6547794005677865e+00   8.5023916609108667e+00   5.9508873069607446e+00   7.5883746514399855e+00   1.5060928412726116e+00   1.6364233398326888e+00   7.6338329116593329e+00   4.6083272815436063e+00   1.1100732071795191e+01   1.0585957614895952e+01   8.6932315300439846e+00   7.8449230674052508e+00   1.1110624431078723e+01   1.2062787240195313e+01   6.8184866487393156e+00   7.3759821204219849e+00   7.9008366540797086e+00   7.6546307641155362e+00   9.0551492996041514e+00   9.0298142842602225e+00   9.5337360830022693e+00   9.9278776366540633e+00   9.2678536955659645e+00   9.9035876947008461e+00   8.6027260173447804e+00   9.3210373484011679e+00   7.8196936934806969e+00   8.5480564291729859e+00   7.1059552279134746e+00   7.8718143982591444e+00   6.6048531755296400e+00   7.4417616975707874e+00   8.6119505277329864e+00   7.3087506363429107e+00   1.2163433024455278e+01   1.4632776038739470e+01   1.1694004932481695e+01   1.3046445847295081e+01   1.1575746248832614e+01   1.2572053952707080e+01   1.1455725516550627e+01   1.2253374679460379e+01   1.1147683627475647e+01   1.1874448365147764e+01   9.8306698868342881e+00   1.0901546528686881e+01   6.8703127856143187e+00   8.6452396281623933e+00   6.7045593921981252e+00   5.9820035219848959e+00   5.7726094328721258e+00   7.2073131104509089e+00   5.0962195779223700e+00   5.3811834416270550e+00   5.0547489789533548e+00   3.5826568724742942e+00   5.1615049738549104e+00   5.6225547586546654e+00   1.0326677411332643e+01   9.0669381558881845e+00   2.0915262664821331e+01   1.4078654436424207e+01   1.5522347815059682e+01   2.2920508749567329e+01   2.0988601277377768e+01   1.4253138132900760e+01   1.6908212589887938e+01   2.1407816332352365e+01   1.9134608962430228e+01   1.7008444538576835e+01   1.0760270094211092e+01   1.6543511085909845e+01   1.6042518924143479e+01   1.1387922619284756e+01   2.2629162460245343e+01   1.4457098120393439e+01   1.5788568716488067e+01   1.7690427114727033e+01   9.7471780039307223e+00   9.0565779695156134e+00   1.2501073554751851e+01   7.1328355682256364e+00   1.3548843332171785e+01   8.8137551004349444e+00   1.4590006165150111e+01   9.6233499997439829e+00   1.4348676420954471e+01   9.7982517000895513e+00   1.1469078606844887e+01   8.3612998428351997e+00   7.6858490040153775e+00   5.8884041782296972e+00   5.6141934352455003e+00   5.0433715977272042e+00   4.9904701861733001e+00   5.2879539600841534e+00   6.9875128971446729e+00   6.1284155384672001e+00   4.6736530009240207e+00   5.1839077248923822e+00   1.4283442189049309e+00   1.4669844745327625e+00   7.3290428433787449e+00   4.3076533007006805e+00   8.9974706364146932e+00   9.2591461393078802e+00   6.7000213491264260e+00   6.3652011823317576e+00   9.2917113276581684e+00   7.8399994864245217e+00   7.1846998515246874e+00   6.2838527787825322e+00   1.1246591823966300e+01   1.0208460979205141e+01   1.4651385948749322e+01   1.4182468058706473e+01   1.5864110457267328e+01   1.6342637509458918e+01   1.5680368129270642e+01   1.6522941321182522e+01   1.4700668279517783e+01   1.5699004316844855e+01   1.3435409180869470e+01   1.4369198069275154e+01   1.2327492674578744e+01   1.3028256674177481e+01   1.1494862380620697e+01   1.1901345022130673e+01   1.5565526677826661e+01   1.2744159090643773e+01   9.9584000575725753e+00   6.5355397476167809e+00   9.6860177991039027e+00   5.9560409186790073e+00   9.5577289793393927e+00   6.0630847504451966e+00   9.2844638338162397e+00   6.0022397929602143e+00   8.9293390145377813e+00   5.8526223535646524e+00   8.0572245846823236e+00   5.6352273412417624e+00   6.3465771185766835e+00   4.7382388941939491e+00   4.3746364351159173e+00   3.7519889282278567e+00   8.4083630738577284e+00   5.8953013793208733e+00   3.9235662597481413e+00   6.2641567019331843e+00   2.5638403598484745e+00   1.6066763028665869e+00   7.0813675990945164e+00   5.8002693422969545e+00   1.0937874758040261e+01   9.7046988378161831e+00   1.3531919689552012e+01   1.5449295358047177e+01   2.1800461480598806e+01   1.4535047127191673e+01   1.3845996649614269e+01   1.9522171431880331e+01   2.0019931322986672e+01   1.2339999062576927e+01   1.4797643317591705e+01   1.8621524495627632e+01   1.8054465199844493e+01   1.2546106194759435e+01   1.0613009149238700e+01   1.4739114337260162e+01   9.5240379411042895e+00   9.5342445299683387e+00   1.3695555328594805e+01   1.2082152491814792e+01   5.0344371342732739e+00   9.4429159222439463e+00   1.0509263160921980e+00   1.9664003652912907e+00   7.9071204593255540e-01   1.1336677073657837e+00   1.1471524047063701e+00   1.0201040159025130e+00   1.3221376924777963e+00   1.3591090049366168e+00   1.5546939348308362e+00   1.5961342545985768e+00   2.3349016847412307e+00   1.8933297063170149e+00   4.9516039409528450e+00   4.1242298449762309e+00   7.1338188483001801e+00   8.0108301683848850e+00   4.3354514388435170e+00   6.1719777836011200e+00   2.6842607975056532e+00   2.4160142913276759e+00   1.2829830743691524e+00   1.0161707785903673e+00   5.6811777473926810e+00   2.5668717020583589e+00   7.0302535830161732e+00   6.7448647387179061e+00   4.6472290606481810e+00   4.7262697338001036e+00   4.6602591438507952e+00   4.1977609395676563e+00   4.0732775045544924e+00   2.9805245415845905e+00   7.3983365064876327e+00   3.6690684856936038e+00   1.0812166907848590e+01   5.8887286322593644e+00   1.2545388254410316e+01   8.0154424509220750e+00   1.2647541843419638e+01   8.4355904543229681e+00   1.2034462519412221e+01   8.2527187659847883e+00   1.1056600029052470e+01   7.7178535251914147e+00   1.0156318045365028e+01   7.0883348564674611e+00   9.9158240914056037e+00   6.8469549301159294e+00   1.0421675230165553e+01   8.6794311482240687e+00   1.1840553369429982e+00   1.6317267349783631e+00   1.0510695401536088e+00   1.1175035454807172e+00   1.1687361216341678e+00   1.2505500954700230e+00   1.1787895419992673e+00   1.2788198769901697e+00   1.1322611580423447e+00   1.2221871322784710e+00   1.1363969250268411e+00   1.1536082418898994e+00   1.0839925898490479e+00   1.1373391630344090e+00   2.2755883985295853e+00   1.1873531292397164e+00   5.8160208194131782e+00   3.6382039689078489e+00   4.1505384078786696e+00   5.9238315222831766e+00   1.1136698942573273e+00   2.8075265404761596e+00   5.6141749334750246e+00   1.5720109807849920e+00   8.7419848300262384e+00   9.8117269113657599e+00   1.5382936720800501e+01   9.5468533493256356e+00   1.1084184356286070e+01   1.4216745474084556e+01   1.3558888406484220e+01   8.6278109203724913e+00   1.1354675006423621e+01   1.3517864068450882e+01   1.6626667344304899e+01   1.0526102604551506e+01   1.0443108722704990e+01   1.4055081212257008e+01   9.7176371447339367e+00   5.8182346231265392e+00   6.0397568883851322e+00   5.0301695483668949e+00   1.3468083895316861e+01   8.8664190295085508e+00   8.1849741795104514e+00   1.3093981396275618e+01   2.6880514500472636e+00   4.4392185632154879e+00   1.5984459198282535e+00   2.3758549116259342e+00   2.3174751869755830e+00   2.5913918118174655e+00   1.8899934285967663e+00   2.8972117356332219e+00   1.9015932743483221e+00   2.0731376131487349e+00   3.8797347487375755e+00   3.6933409910484492e+00   6.0031325935243522e+00   4.8200721118778622e+00   1.1034072038218229e+01   1.0333252699341823e+01   4.7147888566499816e+00   8.6459808940054490e+00   9.5836835466782355e-01   1.1624132612163045e+00   3.2317453457568557e+00   3.4010993864225081e+00   3.4841994544512693e+00   4.9280192698223706e+00   4.5564355428309140e+00   3.9172946777246915e+00   6.4719541477398712e+00   6.5491538235093794e+00   3.0344795381098599e+00   6.4678028644123513e+00   1.3899653822103113e+00   1.4237241240650318e+00   2.6655777038928843e+00   1.9109050438591630e+00   2.4394412669363801e+00   2.9988499096012147e+00   2.3039937069172329e+00   2.9651334132457818e+00   2.2751807664772863e+00   2.9220638540465624e+00   2.3321715453500613e+00   2.9398584640392493e+00   2.4687302645914260e+00   2.9820825139297082e+00   2.7979958104235960e+00   3.1188779581731327e+00   4.0140264319535959e+00   3.6133665551381107e+00   8.3114085698699451e+00   5.7091688482500853e+00   8.1751192814041822e+00   1.2541578929353765e+01   7.4044196935596265e+00   1.1084617161476455e+01   7.0742923648030294e+00   1.0389133685050465e+01   6.7320731756579297e+00   9.8965570638933400e+00   6.3023858256919318e+00   9.3622980874105615e+00   5.6421134009352434e+00   8.6429180933794285e+00   4.5408120226044204e+00   7.5092319438607555e+00   3.4557567006931333e+00   6.2067358534794757e+00   4.9756635056184741e+00   4.6554992899274996e+00   3.7320864022528664e+00   4.4737612982132431e+00   5.1925740074634383e+00   5.3425572518584445e+00   5.2475515060502946e+00   7.6878869733608601e+00   1.3754299227521363e+01   8.7217151360684184e+00   9.4170599004085105e+00   1.4185618393769598e+01   9.241909