<?xml version="1.0"?>
<VTKFile type="UnstructuredGrid"  version="0.1"  >
<UnstructuredGrid>
<Piece  NumberOfPoints="2401" NumberOfCells="4608">
<Points>
<DataArray  type="Float64"  NumberOfComponents="3"  format="ascii">0 0 0  0.001070538380698371 0 0  0.004277569313095364 0 0  0.009607359798386061 0 0  0.01703708685546806 0 0  0.02653493525245065 0 0  0.03806023374436157 0 0  0.05156362923366253 0 0  0.06698729810778931 0 0  0.08426519384873815 0 0  0.1033233298543955 0 0  0.1240800962605269 0 0  0.1464466094067445 0 0  0.1703270924499866 0 0  0.1956192854956637 0 0  0.2222148834902257 0 0  0.2500000000000299 0 0  0.2788556548905322 0 0  0.308658283817491 0 0  0.339280267348458 0 0  0.3705904774487813 0 0  0.4024548389919803 0 0  0.4347369038900211 0 0  0.467298435384978 0 0  0.5000000000000517 0 0  0.5327015646151253 0 0  0.5652630961100813 0 0  0.5975451610081212 0 0  0.6294095225513188 0 0  0.6607197326516399 0 0  0.6913417161826045 0 0  0.7211443451095605 0 0  0.7500000000000597 0 0  0.7777851165098603 0 0  0.8043807145044185 0 0  0.829672907550091 0 0  0.8535533905933287 0 0  0.8759199037395413 0 0  0.8966766701456674 0 0  0.9157348061513193 0 0  0.9330127018922625 0 0  0.9484363707663832 0 0  0.961939766255678 0 0  0.9734650647475827 0 0  0.9829629131445586 0 0  0.9903926402016341 0 0  0.9957224306869181 0 0  0.9989294616193084 0 0  1 0 0  0 0.02083333333333333 0  0.001070538380698371 0.02083333333333333 0  0.004277569313095364 0.02083333333333333 0  0.009607359798386061 0.02083333333333333 0  0.01703708685546806 0.02083333333333333 0  0.02653493525245065 0.02083333333333333 0  0.03806023374436157 0.02083333333333333 0  0.05156362923366253 0.02083333333333333 0  0.06698729810778931 0.02083333333333333 0  0.08426519384873815 0.02083333333333333 0  0.1033233298543955 0.02083333333333333 0  0.1240800962605269 0.02083333333333333 0  0.1464466094067445 0.02083333333333333 0  0.1703270924499866 0.02083333333333333 0  0.1956192854956637 0.02083333333333333 0  0.2222148834902257 0.02083333333333333 0  0.2500000000000299 0.02083333333333333 0  0.2788556548905322 0.02083333333333333 0  0.308658283817491 0.02083333333333333 0  0.339280267348458 0.02083333333333333 0  0.3705904774487813 0.02083333333333333 0  0.4024548389919803 0.02083333333333333 0  0.4347369038900211 0.02083333333333333 0  0.467298435384978 0.02083333333333333 0  0.5000000000000517 0.02083333333333333 0  0.5327015646151253 0.02083333333333333 0  0.5652630961100813 0.02083333333333333 0  0.5975451610081212 0.02083333333333333 0  0.6294095225513188 0.02083333333333333 0  0.6607197326516399 0.02083333333333333 0  0.6913417161826045 0.02083333333333333 0  0.7211443451095605 0.02083333333333333 0  0.7500000000000597 0.02083333333333333 0  0.7777851165098603 0.02083333333333333 0  0.8043807145044185 0.02083333333333333 0  0.829672907550091 0.02083333333333333 0  0.8535533905933287 0.02083333333333333 0  0.8759199037395413 0.02083333333333333 0  0.8966766701456674 0.02083333333333333 0  0.9157348061513193 0.02083333333333333 0  0.9330127018922625 0.02083333333333333 0  0.9484363707663832 0.02083333333333333 0  0.961939766255678 0.02083333333333333 0  0.9734650647475827 0.02083333333333333 0  0.9829629131445586 0.02083333333333333 0  0.9903926402016341 0.02083333333333333 0  0.9957224306869181 0.02083333333333333 0  0.9989294616193084 0.02083333333333333 0  1 0.02083333333333333 0  0 0.04166666666666666 0  0.001070538380698371 0.04166666666666666 0  0.004277569313095364 0.04166666666666666 0  0.009607359798386061 0.04166666666666666 0  0.01703708685546806 0.04166666666666666 0  0.02653493525245065 0.04166666666666666 0  0.03806023374436157 0.04166666666666666 0  0.05156362923366253 0.04166666666666666 0  0.06698729810778931 0.04166666666666666 0  0.08426519384873815 0.04166666666666666 0  0.1033233298543955 0.04166666666666666 0  0.1240800962605269 0.04166666666666666 0  0.1464466094067445 0.04166666666666666 0  0.1703270924499866 0.04166666666666666 0  0.1956192854956637 0.04166666666666666 0  0.2222148834902257 0.04166666666666666 0  0.2500000000000299 0.04166666666666666 0  0.2788556548905322 0.04166666666666666 0  0.308658283817491 0.04166666666666666 0  0.339280267348458 0.04166666666666666 0  0.3705904774487813 0.04166666666666666 0  0.4024548389919803 0.04166666666666666 0  0.4347369038900211 0.04166666666666666 0  0.467298435384978 0.04166666666666666 0  0.5000000000000517 0.04166666666666666 0  0.5327015646151253 0.04166666666666666 0  0.5652630961100813 0.04166666666666666 0  0.5975451610081212 0.04166666666666666 0  0.6294095225513188 0.04166666666666666 0  0.6607197326516399 0.04166666666666666 0  0.6913417161826045 0.04166666666666666 0  0.7211443451095605 0.04166666666666666 0  0.7500000000000597 0.04166666666666666 0  0.7777851165098603 0.04166666666666666 0  0.8043807145044185 0.04166666666666666 0  0.829672907550091 0.04166666666666666 0  0.8535533905933287 0.04166666666666666 0  0.8759199037395413 0.04166666666666666 0  0.8966766701456674 0.04166666666666666 0  0.9157348061513193 0.04166666666666666 0  0.9330127018922625 0.04166666666666666 0  0.9484363707663832 0.04166666666666666 0  0.961939766255678 0.04166666666666666 0  0.9734650647475827 0.04166666666666666 0  0.9829629131445586 0.04166666666666666 0  0.9903926402016341 0.04166666666666666 0  0.9957224306869181 0.04166666666666666 0  0.9989294616193084 0.04166666666666666 0  1 0.04166666666666666 0  0 0.0625 0  0.001070538380698371 0.0625 0  0.004277569313095364 0.0625 0  0.009607359798386061 0.0625 0  0.01703708685546806 0.0625 0  0.02653493525245065 0.0625 0  0.03806023374436157 0.0625 0  0.05156362923366253 0.0625 0  0.06698729810778931 0.0625 0  0.08426519384873815 0.0625 0  0.1033233298543955 0.0625 0  0.1240800962605269 0.0625 0  0.1464466094067445 0.0625 0  0.1703270924499866 0.0625 0  0.1956192854956637 0.0625 0  0.2222148834902257 0.0625 0  0.2500000000000299 0.0625 0  0.2788556548905322 0.0625 0  0.308658283817491 0.0625 0  0.339280267348458 0.0625 0  0.3705904774487813 0.0625 0  0.4024548389919803 0.0625 0  0.4347369038900211 0.0625 0  0.467298435384978 0.0625 0  0.5000000000000517 0.0625 0  0.5327015646151253 0.0625 0  0.5652630961100813 0.0625 0  0.5975451610081212 0.0625 0  0.6294095225513188 0.0625 0  0.6607197326516399 0.0625 0  0.6913417161826045 0.0625 0  0.7211443451095605 0.0625 0  0.7500000000000597 0.0625 0  0.7777851165098603 0.0625 0  0.8043807145044185 0.0625 0  0.829672907550091 0.0625 0  0.8535533905933287 0.0625 0  0.8759199037395413 0.0625 0  0.8966766701456674 0.0625 0  0.9157348061513193 0.0625 0  0.9330127018922625 0.0625 0  0.9484363707663832 0.0625 0  0.961939766255678 0.0625 0  0.9734650647475827 0.0625 0  0.9829629131445586 0.0625 0  0.9903926402016341 0.0625 0  0.9957224306869181 0.0625 0  0.9989294616193084 0.0625 0  1 0.0625 0  0 0.08333333333333333 0  0.001070538380698371 0.08333333333333333 0  0.004277569313095364 0.08333333333333333 0  0.009607359798386061 0.08333333333333333 0  0.01703708685546806 0.08333333333333333 0  0.02653493525245065 0.08333333333333333 0  0.03806023374436157 0.08333333333333333 0  0.05156362923366253 0.08333333333333333 0  0.06698729810778931 0.08333333333333333 0  0.08426519384873815 0.08333333333333333 0  0.1033233298543955 0.08333333333333333 0  0.1240800962605269 0.08333333333333333 0  0.1464466094067445 0.08333333333333333 0  0.1703270924499866 0.08333333333333333 0  0.1956192854956637 0.08333333333333333 0  0.2222148834902257 0.08333333333333333 0  0.2500000000000299 0.08333333333333333 0  0.2788556548905322 0.08333333333333333 0  0.308658283817491 0.08333333333333333 0  0.339280267348458 0.08333333333333333 0  0.3705904774487813 0.08333333333333333 0  0.4024548389919803 0.08333333333333333 0  0.4347369038900211 0.08333333333333333 0  0.467298435384978 0.08333333333333333 0  0.5000000000000517 0.08333333333333333 0  0.5327015646151253 0.08333333333333333 0  0.5652630961100813 0.08333333333333333 0  0.5975451610081212 0.08333333333333333 0  0.6294095225513188 0.08333333333333333 0  0.6607197326516399 0.08333333333333333 0  0.6913417161826045 0.08333333333333333 0  0.7211443451095605 0.08333333333333333 0  0.7500000000000597 0.08333333333333333 0  0.7777851165098603 0.08333333333333333 0  0.8043807145044185 0.08333333333333333 0  0.829672907550091 0.08333333333333333 0  0.8535533905933287 0.08333333333333333 0  0.8759199037395413 0.08333333333333333 0  0.8966766701456674 0.08333333333333333 0  0.9157348061513193 0.08333333333333333 0  0.9330127018922625 0.08333333333333333 0  0.9484363707663832 0.08333333333333333 0  0.961939766255678 0.08333333333333333 0  0.9734650647475827 0.08333333333333333 0  0.9829629131445586 0.08333333333333333 0  0.9903926402016341 0.08333333333333333 0  0.9957224306869181 0.08333333333333333 0  0.9989294616193084 0.08333333333333333 0  1 0.08333333333333333 0  0 0.1041666666666667 0  0.001070538380698371 0.1041666666666667 0  0.004277569313095364 0.1041666666666667 0  0.009607359798386061 0.1041666666666667 0  0.01703708685546806 0.1041666666666667 0  0.02653493525245065 0.1041666666666667 0  0.03806023374436157 0.1041666666666667 0  0.05156362923366253 0.1041666666666667 0  0.06698729810778931 0.1041666666666667 0  0.08426519384873815 0.1041666666666667 0  0.1033233298543955 0.1041666666666667 0  0.1240800962605269 0.1041666666666667 0  0.1464466094067445 0.1041666666666667 0  0.1703270924499866 0.1041666666666667 0  0.1956192854956637 0.1041666666666667 0  0.2222148834902257 0.1041666666666667 0  0.2500000000000299 0.1041666666666667 0  0.2788556548905322 0.1041666666666667 0  0.308658283817491 0.1041666666666667 0  0.339280267348458 0.1041666666666667 0  0.3705904774487813 0.1041666666666667 0  0.4024548389919803 0.1041666666666667 0  0.4347369038900211 0.1041666666666667 0  0.467298435384978 0.1041666666666667 0  0.5000000000000517 0.1041666666666667 0  0.5327015646151253 0.1041666666666667 0  0.5652630961100813 0.1041666666666667 0  0.5975451610081212 0.1041666666666667 0  0.62
[...]
<PointData  Scalars="f_17182068"> 
<DataArray  type="Float64"  Name="f_17182068"  format="ascii">-1.9347881503534807e+00  -1.9334248479886058e+00  -1.9381272448312041e+00  -1.9548867471906179e+00  -1.9986122542018341e+00  -2.0821340009707336e+00  -2.1777615890295308e+00  -2.3262394608484027e+00  -2.4671261445863961e+00  -2.6516068306628999e+00  -2.8546526366014842e+00  -2.9985205990848551e+00  -3.1679611933951115e+00  -3.3651957123789877e+00  -3.5619748291242224e+00  -3.7768696692404373e+00  -3.9869254909426060e+00  -4.1154516151983564e+00  -4.2472677248780686e+00  -4.3339541975890059e+00  -4.4013297955567605e+00  -4.3992245855073557e+00  -4.3711494325051428e+00  -4.3123989190572312e+00  -4.2252005598394167e+00  -4.0670218856310054e+00  -3.8961972339765891e+00  -3.6856062278088828e+00  -3.4065151723941556e+00  -3.0736912455139977e+00  -2.7093225906419653e+00  -2.2799680016253072e+00  -1.8233146944501972e+00  -1.3582768153084057e+00  -8.6663143950400701e-01  -3.8276711938321606e-01  5.8600797572464183e-02  4.7702074028322983e-01  8.7631140781806305e-01  1.2222865000517311e+00  1.4880621113846328e+00  1.7072116948147984e+00  1.8708466074633419e+00  1.9920742020432838e+00  2.0615186790739335e+00  2.0916199558270829e+00  2.1034840243295214e+00  2.1080754193416489e+00  2.1123918689226313e+00  -1.8145110015169483e+00  -1.8148536374674913e+00  -1.8219233916355209e+00  -1.8446868570423569e+00  -1.8832112015286047e+00  -1.9537697806699386e+00  -2.0552618470895734e+00  -2.1996530370189742e+00  -2.3375829261131797e+00  -2.5326733627538438e+00  -2.7058188540580632e+00  -2.9025736257350072e+00  -3.0440873324049238e+00  -3.2533549749217991e+00  -3.4692146467310510e+00  -3.6542923500857087e+00  -3.8903807921782056e+00  -4.0494875276466944e+00  -4.1536598243772689e+00  -4.2448798934841783e+00  -4.2781420795255167e+00  -4.2863266628867915e+00  -4.2532479463506858e+00  -4.2068063818626502e+00  -4.1012557309409603e+00  -3.9574830963304297e+00  -3.7845618367433036e+00  -3.5728849014718040e+00  -3.2972630651719563e+00  -2.9849153226999592e+00  -2.6236265128940901e+00  -2.2074460901508490e+00  -1.7531366804662978e+00  -1.2727771022928502e+00  -7.8058490317951768e-01  -3.0392836160206904e-01  1.4269272747788861e-01  5.8335211251749475e-01  9.7315579801105534e-01  1.3094699909603091e+00  1.5948640833301453e+00  1.8150401823334874e+00  1.9922434479475621e+00  2.1246229864053539e+00  2.2030713658198771e+00  2.2441983200328464e+00  2.2669636429715658e+00  2.2754740599792758e+00  2.2738548163711063e+00  -1.5490489454705196e+00  -1.5497377134282551e+00  -1.5584554871795953e+00  -1.5863061678654249e+00  -1.6329486334296335e+00  -1.7153050021689829e+00  -1.8036839865458798e+00  -1.9595531648378410e+00  -2.1007343421812048e+00  -2.2930756088990165e+00  -2.4905410943074626e+00  -2.6461922340573150e+00  -2.8412381998496112e+00  -2.9839888476393654e+00  -3.2291237491001281e+00  -3.4526013842000314e+00  -3.5831009059896486e+00  -3.7999099111884100e+00  -3.8932729814092619e+00  -3.9516891581257103e+00  -4.0142270273758340e+00  -4.0387981841466427e+00  -4.0260166899510716e+00  -3.9622944653397130e+00  -3.8702973396534759e+00  -3.7463839198964530e+00  -3.5615298920214236e+00  -3.3192698622419363e+00  -3.0602288540070752e+00  -2.7526856649525078e+00  -2.3940467841723367e+00  -1.9871876162648368e+00  -1.5556421153611866e+00  -1.0656267672189252e+00  -5.7670225670899722e-01  -1.2017116587894776e-01  3.5362228304640420e-01  8.0999260658510097e-01  1.2052854933751143e+00  1.5465566769653039e+00  1.8663596990807743e+00  2.0921957181997142e+00  2.2849726828064774e+00  2.4256713604715125e+00  2.5256796503143719e+00  2.5852275975644750e+00  2.6218577456874828e+00  2.6336808466314974e+00  2.6333689740728441e+00  -1.2332248199003601e+00  -1.2342193142612892e+00  -1.2453044305290897e+00  -1.2793279141645428e+00  -1.3298818794695628e+00  -1.3956902878667306e+00  -1.5093341495968597e+00  -1.6458172712539063e+00  -1.8067146454471481e+00  -1.9622030349235247e+00  -2.2205762644278662e+00  -2.3837122379052018e+00  -2.5414643282915614e+00  -2.7471925832803938e+00  -2.8904925548923055e+00  -3.1449162583717234e+00  -3.3275570004922379e+00  -3.4823440549248241e+00  -3.6219390978660346e+00  -3.6895139515174376e+00  -3.7284997163802269e+00  -3.7623974837351342e+00  -3.7112656663280243e+00  -3.6741049551794740e+00  -3.5980822499497860e+00  -3.4816171940342842e+00  -3.2919265875699355e+00  -3.0471838298127603e+00  -2.7697672872209242e+00  -2.4599242512908304e+00  -2.0984327843768571e+00  -1.7041838844941564e+00  -1.2733893929532074e+00  -7.9007590360720326e-01  -3.1749219661196698e-01  1.4305123008379281e-01  6.3801482393395137e-01  1.0963861825225083e+00  1.5004764058597695e+00  1.8686371681949971e+00  2.1773110085326692e+00  2.4265819356994585e+00  2.6340400766703889e+00  2.7912878862687633e+00  2.9102801960318487e+00  2.9805993276931506e+00  3.0279320954625262e+00  3.0432265270748351e+00  3.0444647928455155e+00  -8.7053795055122085e-01  -8.7226671610652529e-01  -8.7689932777096868e-01  -9.1744548353196198e-01  -9.7729780361217033e-01  -1.0555037079357050e+00  -1.1607713235573949e+00  -1.2925212370937362e+00  -1.4847293551954370e+00  -1.6443643097184670e+00  -1.8492461076398601e+00  -2.1158389680233305e+00  -2.2693366680040032e+00  -2.4336409355009794e+00  -2.6481055437427243e+00  -2.7781001808582708e+00  -3.0141700164224718e+00  -3.1269984132081676e+00  -3.2773745376801848e+00  -3.3874099396017412e+00  -3.4620266588186062e+00  -3.4820117115454052e+00  -3.4682078801883209e+00  -3.3813991608886798e+00  -3.2952356493272705e+00  -3.1554777704381731e+00  -2.9760215913722061e+00  -2.7417546174692475e+00  -2.4910520789645330e+00  -2.1866938622188310e+00  -1.8121761975995447e+00  -1.4261259657394236e+00  -9.8168149888106127e-01  -5.0475719303549982e-01  -4.0457741023839880e-02  4.3613629444457797e-01  9.2379922171858164e-01  1.3965280463244443e+00  1.8231230796246085e+00  2.1895678268679761e+00  2.4847621851028405e+00  2.7755423065417113e+00  2.9892770224461711e+00  3.1677168973980012e+00  3.2880063258507586e+00  3.3732529341786672e+00  3.4252170577315639e+00  3.4402330431367214e+00  3.4385823305334240e+00  -4.8902312903538925e-01  -4.8938191524725827e-01  -4.9524553564582907e-01  -5.2609425921829966e-01  -5.9199421247991169e-01  -6.8655685265223199e-01  -7.8992709458366639e-01  -9.4377850790642426e-01  -1.0831122286259640e+00  -1.3055458162958209e+00  -1.5096745191895256e+00  -1.7324923119934243e+00  -1.9890039547073322e+00  -2.1383575148605152e+00  -2.2979694247057867e+00  -2.5159711119259081e+00  -2.6410871694410600e+00  -2.8036166695757117e+00  -2.9399049684610956e+00  -3.0588074076205722e+00  -3.1300542188222358e+00  -3.1448757636967768e+00  -3.1459665412029501e+00  -3.1278441730177540e+00  -3.0219890892461359e+00  -2.8793425531519561e+00  -2.6701313416612793e+00  -2.4741164905205317e+00  -2.2177764904404342e+00  -1.8964125158858518e+00  -1.5326064243614987e+00  -1.1604234919129111e+00  -7.0626403278379613e-01  -2.3242584382909978e-01  2.4787796553443650e-01  7.1739321539751066e-01  1.2307352763777939e+00  1.6762865037586929e+00  2.1046194557934617e+00  2.4866814442245637e+00  2.8097983820707819e+00  3.0979294318976294e+00  3.3368137533903917e+00  3.5263617190266601e+00  3.6437048888885113e+00  3.7413653563431510e+00  3.7989772492351714e+00  3.8181304233558548e+00  3.8209498025685287e+00  -8.0990924205390766e-02  -8.0570378250914093e-02  -8.8966106599038183e-02  -1.1160050609262823e-01  -1.7901990294270406e-01  -2.5564621477232002e-01  -3.6818279706964718e-01  -5.4669933942477444e-01  -7.5818926538754261e-01  -9.1815116668540808e-01  -1.1680677825584647e+00  -1.3642609779507562e+00  -1.5706541293659151e+00  -1.8269483855907651e+00  -1.9817930115245150e+00  -2.1312520332563878e+00  -2.3319751664094803e+00  -2.4799469818204920e+00  -2.6057763066732416e+00  -2.7248712987296950e+00  -2.7959947003232393e+00  -2.8671237181512250e+00  -2.8692536240313338e+00  -2.8181402028206395e+00  -2.7542302614658731e+00  -2.6024255738523232e+00  -2.4104799670139445e+00  -2.1835204260014041e+00  -1.9286595700971407e+00  -1.6150734473949342e+00  -1.2658244705657966e+00  -8.6863328384666749e-01  -4.1703815253525400e-01  4.5888862992944798e-02  5.2214482767533166e-01  9.8699093074976119e-01  1.5117483702845795e+00  1.9380269910150036e+00  2.3805325089673248e+00  2.7982079981228529e+00  3.1287560851544280e+00  3.4088391911267912e+00  3.6726519968250035e+00  3.8652188992735850e+00  3.9944195726013834e+00  4.0864944836844472e+00  4.1371906272290921e+00  4.1493799623732697e+00  4.1499994645896212e+00  3.3616948781177947e-01  3.3495229986721059e-01  3.2846140537280777e-01  3.1030446547210594e-01  2.5850173489209638e-01  1.6401385486686165e-01  7.9209132943191499e-02  -5.9738638981254914e-02  -2.9402245645962977e-01  -5.2452886002051724e-01  -7.2135841831651748e-01  -9.9046778726444007e-01  -1.1805628503247336e+00  -1.4112299026549102e+00  -1.6388303537316682e+00  -1.8164055599328717e+00  -1.9648646876605895e+00  -2.1438260130823275e+00  -2.2702744856191965e+00  -2.3649800655313031e+00  -2.4405233176230228e+00  -2.5138712586903060e+00  -2.5537599820400838e+00  -2.4989495988636303e+00  -2.3877452740192804e+00  -2.2592689589104333e+00  -2.0962804006847882e+00  -1.8816779383755045e+00  -1.6416084664752382e+00  -1.3480656072355810e+00  -9.9740539088775915e-01  -5.8704865600987999e-01  -1.5567413069177644e-01  2.8887742522666465e-01  7.5679260535770487e-01  1.2246073627249183e+00  1.7264241792120516e+00  2.1844090089736747e+00  2.6348551606446016e+00  3.0854517579447638e+00  3.4181361280306848e+00  3.7387432331558088e+00  3.9859776898059587e+00  4.1870694129074399e+00  4.3153090441092647e+00  4.4139874646314103e+00  4.4564956639921931e+00  4.4676053631301214e+00  4.4683918559376492e+00  7.4298526242123253e-01  7.4375821331871328e-01  7.2796294358675928e-01  7.0419802800870823e-01  6.7506559516402820e-01  5.6827202093679130e-01  4.7242962413729805e-01  3.6763414180085735e-01  1.7608295077303637e-01  -3.6343341465613258e-02  -3.1964332453293387e-01  -5.3416593818859170e-01  -7.7126934185917995e-01  -9.8619320893276485e-01  -1.2166171562093124e+00  -1.4407920237409766e+00  -1.6079085353526794e+00  -1.7687794145802631e+00  -1.9144117159338176e+00  -2.0403324997434047e+00  -2.1487680140878753e+00  -2.1924467865750517e+00  -2.1988591236227171e+00  -2.1854984086025273e+00  -2.0967554559414610e+00  -1.9616054895056583e+00  -1.8006496249044113e+00  -1.6245915338480204e+00  -1.3707665815606267e+00  -1.0805535822808994e+00  -7.3155368672631116e-01  -3.4656955848417326e-01  6.8935865876347008e-02  5.0918803742143026e-01  9.8448534581597757e-01  1.4500196365514411e+00  1.9446929689851675e+00  2.4309517316544076e+00  2.8895336418360906e+00  3.3077889872097623e+00  3.7032511357641571e+00  4.0054777097483552e+00  4.2596343028934029e+00  4.4686252689866510e+00  4.6008071429465822e+00  4.7042870810616106e+00  4.7521628040790613e+00  4.7697656004603459e+00  4.7689711474260132e+00  1.1417176585333340e+00  1.1417422079662873e+00  1.1350344908247383e+00  1.0926140312070010e+00  1.0443091274842018e+00  1.0046577500212841e+00  8.5566129042878192e-01  7.4447210938524622e-01  5.9309485432307563e-01  3.2879053536209568e-01  8.3223867465740078e-02  -1.4132714901117754e-01  -3.7927089296710786e-01  -5.7940424401318513e-01  -7.8571660566539880e-01  -1.0467679701578185e+00  -1.2507581939033399e+00  -1.4242864963896293e+00  -1.5669088824259179e+00  -1.7035850866441364e+00  -1.8175323361390481e+00  -1.8781194033671864e+00  -1.8988828692889910e+00  -1.8703004989169130e+00  -1.8312717013186941e+00  -1.7257049361640766e+00  -1.5737597969325952e+00  -1.3679138824688921e+00  -1.1356213744682808e+00  -8.4775317371825654e-01  -4.9877429483501201e-01  -1.3236709402678096e-01  2.7382335473316277e-01  7.1019609458917499e-01  1.1803139499090884e+00  1.6520122005118607e+00  2.1512708131793232e+00  2.6534829889874003e+00  3.1176267961321216e+00  3.5334424389056269e+00  3.9601141053583224e+00  4.2505806718147152e+00  4.5052457960042789e+00  4.7172655977840527e+00  4.8660704049924615e+00  4.9723435381569372e+00  5.0152639566008697e+00  5.0434670888948139e+00  5.0470708124412385e+00  1.5459719722725129e+00  1.5471811820183601e+00  1.5379259925307480e+00  1.5169836615146655e+00  1.4345017319210476e+00  1.3620295777766862e+00  1.2821857174006119e+00  1.1143879906904846e+00  9.5795565394203297e-01  7.7572961117203676e-01  5.0719444072542330e-01  2.5358233449817646e-01  3.6992180575525927e-03  -2.1830842904774050e-01  -4.3591158254891049e-01  -6.6647597363350408e-01  -9.1184935343915874e-01  -1.1001271873487450e+00  -1.2668166944318768e+00  -1.3917922913436735e+00  -1.4937522628708453e+00  -1.5693354772753174e+00  -1.5911169626901303e+00  -1.6055900619217294e+00  -1.5371542182273943e+00  -1.4624984169161162e+00  -1.3458793330207528e+00  -1.1602219894500518e+00  -9.2599846521491336e-01  -6.3608608804627176e-01  -2.9602200445644561e-01  5.6440064780445928e-02  4.5126572560166256e-01  9.0630156787370952e-01  1.3712682194802450e+00  1.8437595705574283e+00  2.3740246292049569e+00  2.8495145062283900e+00  3.3372162677811175e+00  3.7531003318836627e+00  4.1592030198189169e+00  4.4836134980770712e+00  4.7377619783908562e+00  4.9524099835505462e+00  5.0838721272515555e+00  5.2019314487382378e+00  5.2662928172462706e+00  5.2876320879238765e+00  5.2897893643669631e+00  1.9558426011844956e+00  1.9556566997631486e+00  1.9475566763042536e+00  1.9130566470570960e+00  1.8601033655366397e+00  1.7593273083424597e+00  1.6692189261653561e+00  1.5092954949002906e+00  1.3631281813256559e+00  1.1548235696340985e+00  9.3283686526242293e-01  6.5940101765867154e-01  4.2966885350693601e-01  1.5072680710893493e-01  -6.3125237542265719e-02  -2.8115685186885847e-01  -5.1733206961960232e-01  -7.5115192118030749e-01  -9.3473586169621381e-01  -1.0653672301656787e+00  -1.1912183763776800e+00  -1.2966413880707719e+00  -1.3508191095865019e+00  -1.3619676000889442e+00  -1.3393563456157411e+00  -1.2458535450888923e+00  -1.1148678678825916e+00  -9.4085189956727056e-01  -7.1887586190677988e-01  -4.2156589761753965e-01  -1.0466354079746211e-01  2.4083653702129068e-01  6.2307048861868863e-01  1.0852674181078212e+00  1.5601947587355007e+00  2.0299311544096579e+00  2.5562059900736243e+00  3.0459279525054876e+00  3.5152842075951516e+00  3.9312149932501335e+00  4.3140688709264952e+00  4.6879096458092917e+00  4.9410801206175865e+00  5.1528434587501994e+00  5.2687025047383136e+00  5.3855866168758428e+00  5.4557767852957193e+00  5.4793074456538582e+00  5.4794031641726528e+00  2.3819444481259171e+00  2.3808276966368900e+00  2.3756012993284901e+00  2.3365533365261388e+00  2.2634530547374996e+00  2.1721984063876838e+00  2.0604373374556140e+00  1.9190481379091116e+00  1.6888120801623137e+00  1.5229533132883322e+00  1.3114909585955170e+00  1.0318607594940916e+00  7.8987383719853754e-01  5.2139854217048365e-01  2.8612948638272095e-01  4.4065617623138376e-02  -1.7172115409545749e-01  -4.2641567520332185e-01  -6.3129073806217029e-01  -8.1598105662280851e-01  -9.2981832308593948e-01  -1.0335249609524870e+00  -1.0962927091224124e+00  -1.1088076876331496e+00  -1.0984140637563611e+00  -1.0383450992390533e+00  -9.1108421237276827e-01  -7.2700182808703928e-01  -5.0277256973927054e-01  -2.3822891073182167e-01  6.3412211133933874e-02  4.0725789079336150e-01  7.8978787039223652e-01  1.2429391845941518e+00  1.7171989521395332e+00  2.1927115914236270e+00  2.6865069219192170e+00  3.2107607756327066e+00  3.7002913558020154e+00  4.0802327105098195e+00  4.4823557197832438e+00  4.8351683798005380e+00  5.1144056116733241e+00  5.3296843974924544e+00  5.4400642545436044e+00  5.5469670270709530e+00  5.6050846731512598e+00  5.6374153486810954e+00  5.6370388127641089e+00  2.8391848192432194e+00  2.8345786072430155e+00  2.8155200729817977e+00  2.7886201716770400e+00  2.7047396897618130e+00  2.6069398172609843e+00  2.4547783898375708e+00  2.3128125738169039e+00  2.0922348920872254e+00  1.8486067451570174e+00  1.6672847223517555e+00  1.3959360345803289e+00  1.1192835723972068e+00  8.3754443270996726e-01  5.6865544773943799e-01  3.4061266684823555e-01  1.2017253541755939e-01  -1.3486900427566012e-01  -3.5455028697461805e-01  -5.5781059305168124e-01  -6.8301965508626417e-01  -7.9692315539628189e-01  -8.7497478016652275e-01  -9.0366344188443637e-01  -8.8430948230843287e-01  -8.2840700451533900e-01  -7.1505257623796248e-01  -5.3681933022181005e-01  -3.3073734393647330e-01  -9.2745117927738971e-02  2.0525365784658295e-01  5.5456763569380396e-01  9.2915352178516031e-01  1.3735746326521390e+00  1.8364383584659485e+00  2.3369754173498709e+00  2.8249422780756084e+00  3.3649446378079828e+00  3.8529816887937800e+00  4.2415812506124873e+00  4.6308499318130716e+00  4.9622773528996662e+00  5.2491673077243437e+00  5.4820593471077146e+00  5.6030830511916783e+00  5.7046436637190778e+00  5.7585062768461537e+00  5.7829976847978051e+00  5.7807554283464322e+00  3.2762654680582353e+00  3.2740906476273808e+00  3.2604304350229798e+00  3.2099589447070986e+00  3.1512339340842033e+00  3.0339279264354957e+00  2.9013089228350761e+00  2.6908077838797455e+00  2.4910043755456366e+00  2.2358660951816667e+00  1.9819638310724945e+00  1.7250326912778278e+00  1.4389467603003741e+00  1.1628227541385416e+00  8.4875878726222476e-01  5.9328304229288875e-01  3.6925101674332672e-01  1.3212339020921110e-01  -9.9979392631316014e-02  -2.8103714326309454e-01  -4.6532919453107485e-01  -5.9474220031936420e-01  -6.7546130781484592e-01  -7.2584460692891328e-01  -7.1369782926906766e-01  -6.5659874051339218e-01  -5.5315458528973094e-01  -3.9118729473973335e-01  -1.9539755924069499e-01  4.1870301762791169e-02  3.3737253465394107e-01  6.8704489308253314e-01  1.0608806045921086e+00  1.4999060832088775e+00  1.9694768680303811e+00  2.4817577677554077e+00  2.9606350889962685e+00  3.5037135822439591e+00  3.9702234584117071e+00  4.3968842064856837e+00  4.7621138168782533e+00  5.0844261901303227e+00  5.3724621276699995e+00  5.5957935669931276e+00  5.7509638682526871e+00  5.8441418240427687e+00  5.9011962730823013e+00  5.9223743471596242e+00  5.9221092197118423e+00  3.6783998630819621e+00  3.6773673823019415e+00  3.6710067559017303e+00  3.6029363197003956e+00  3.5118873991410604e+00  3.4362282010635825e+00  3.2729164293018687e+00  3.0684776110441456e+00  2.8165892554654341e+00  2.5924717521607774e+00  2.3033441831923751e+00  2.0079668177425187e+00  1.7200922510274983e+00  1.4327007916257524e+00  1.1486554630515082e+00  8.6451710034325302e-01  6.1236027141352023e-01  3.7398418693774338e-01  1.3941299551487485e-01  -7.4065925784991604e-02  -2.5121881291556936e-01  -4.0444704625554662e-01  -5.0674904451872815e-01  -5.5624659661787512e-01  -5.5570006565629237e-01  -5.0185402973243542e-01  -4.0733301647627507e-01  -2.5590544938750059e-01  -7.0213201107350368e-02  1.7452127724543301e-01  4.6538716533119234e-01  8.1955704718511313e-01  1.1980330611524492e+00  1.6246010926896541e+00  2.0772163620405824e+00  2.5846952892660600e+00  3.0923199754091697e+00  3.5976867381608120e+00  4.0737764279631685e+00  4.4788584815630967e+00  4.8780498598609006e+00  5.1763726696107115e+00  5.4874813535878326e+00  5.7128200572926273e+00  5.8707478616413837e+00  5.9559346771339898e+00  6.0080150754379442e+00  6.0327260451043108e+00  6.0328050009464196e+00  4.0643715342161642e+00  4.0620402754825129e+00  4.0465811953030544e+00  4.0026009567755922e+00  3.9016845249419259e+00  3.7562176685425053e+00  3.6287935202790433e+00  3.4285862071846531e+00  3.1469827425090924e+00  2.8858455253223685e+00  2.6241971002113025e+00  2.3244274729189556e+00  2.0048294164080165e+00  1.6809228940414240e+00  1.3814393609156652e+00  1.0921308657942446e+00  8.3011591687436481e-01  5.7977112125140084e-01  3.3467498592529926e-01  1.1806025119504843e-01  -7.2480507298994537e-02  -2.3857855143316187e-01  -3.6769887665915130e-01  -4.1573302658582545e-01  -4.2398054582895756e-01  -3.8196917794688018e-01  -2.7694488991582944e-01  -1.2635863624678825e-01  4.8780180