<?xml version="1.0"?>
<VTKFile type="UnstructuredGrid"  version="0.1"  >
<UnstructuredGrid>
<Piece  NumberOfPoints="2401" NumberOfCells="4608">
<Points>
<DataArray  type="Float64"  NumberOfComponents="3"  format="ascii">0 0 0  0.001070538380698371 0 0  0.004277569313095364 0 0  0.009607359798386061 0 0  0.01703708685546806 0 0  0.02653493525245065 0 0  0.03806023374436157 0 0  0.05156362923366253 0 0  0.06698729810778931 0 0  0.08426519384873815 0 0  0.1033233298543955 0 0  0.1240800962605269 0 0  0.1464466094067445 0 0  0.1703270924499866 0 0  0.1956192854956637 0 0  0.2222148834902257 0 0  0.2500000000000299 0 0  0.2788556548905322 0 0  0.308658283817491 0 0  0.339280267348458 0 0  0.3705904774487813 0 0  0.4024548389919803 0 0  0.4347369038900211 0 0  0.467298435384978 0 0  0.5000000000000517 0 0  0.5327015646151253 0 0  0.5652630961100813 0 0  0.5975451610081212 0 0  0.6294095225513188 0 0  0.6607197326516399 0 0  0.6913417161826045 0 0  0.7211443451095605 0 0  0.7500000000000597 0 0  0.7777851165098603 0 0  0.8043807145044185 0 0  0.829672907550091 0 0  0.8535533905933287 0 0  0.8759199037395413 0 0  0.8966766701456674 0 0  0.9157348061513193 0 0  0.9330127018922625 0 0  0.9484363707663832 0 0  0.961939766255678 0 0  0.9734650647475827 0 0  0.9829629131445586 0 0  0.9903926402016341 0 0  0.9957224306869181 0 0  0.9989294616193084 0 0  1 0 0  0 0.02083333333333333 0  0.001070538380698371 0.02083333333333333 0  0.004277569313095364 0.02083333333333333 0  0.009607359798386061 0.02083333333333333 0  0.01703708685546806 0.02083333333333333 0  0.02653493525245065 0.02083333333333333 0  0.03806023374436157 0.02083333333333333 0  0.05156362923366253 0.02083333333333333 0  0.06698729810778931 0.02083333333333333 0  0.08426519384873815 0.02083333333333333 0  0.1033233298543955 0.02083333333333333 0  0.1240800962605269 0.02083333333333333 0  0.1464466094067445 0.02083333333333333 0  0.1703270924499866 0.02083333333333333 0  0.1956192854956637 0.02083333333333333 0  0.2222148834902257 0.02083333333333333 0  0.2500000000000299 0.02083333333333333 0  0.2788556548905322 0.02083333333333333 0  0.308658283817491 0.02083333333333333 0  0.339280267348458 0.02083333333333333 0  0.3705904774487813 0.02083333333333333 0  0.4024548389919803 0.02083333333333333 0  0.4347369038900211 0.02083333333333333 0  0.467298435384978 0.02083333333333333 0  0.5000000000000517 0.02083333333333333 0  0.5327015646151253 0.02083333333333333 0  0.5652630961100813 0.02083333333333333 0  0.5975451610081212 0.02083333333333333 0  0.6294095225513188 0.02083333333333333 0  0.6607197326516399 0.02083333333333333 0  0.6913417161826045 0.02083333333333333 0  0.7211443451095605 0.02083333333333333 0  0.7500000000000597 0.02083333333333333 0  0.7777851165098603 0.02083333333333333 0  0.8043807145044185 0.02083333333333333 0  0.829672907550091 0.02083333333333333 0  0.8535533905933287 0.02083333333333333 0  0.8759199037395413 0.02083333333333333 0  0.8966766701456674 0.02083333333333333 0  0.9157348061513193 0.02083333333333333 0  0.9330127018922625 0.02083333333333333 0  0.9484363707663832 0.02083333333333333 0  0.961939766255678 0.02083333333333333 0  0.9734650647475827 0.02083333333333333 0  0.9829629131445586 0.02083333333333333 0  0.9903926402016341 0.02083333333333333 0  0.9957224306869181 0.02083333333333333 0  0.9989294616193084 0.02083333333333333 0  1 0.02083333333333333 0  0 0.04166666666666666 0  0.001070538380698371 0.04166666666666666 0  0.004277569313095364 0.04166666666666666 0  0.009607359798386061 0.04166666666666666 0  0.01703708685546806 0.04166666666666666 0  0.02653493525245065 0.04166666666666666 0  0.03806023374436157 0.04166666666666666 0  0.05156362923366253 0.04166666666666666 0  0.06698729810778931 0.04166666666666666 0  0.08426519384873815 0.04166666666666666 0  0.1033233298543955 0.04166666666666666 0  0.1240800962605269 0.04166666666666666 0  0.1464466094067445 0.04166666666666666 0  0.1703270924499866 0.04166666666666666 0  0.1956192854956637 0.04166666666666666 0  0.2222148834902257 0.04166666666666666 0  0.2500000000000299 0.04166666666666666 0  0.2788556548905322 0.04166666666666666 0  0.308658283817491 0.04166666666666666 0  0.339280267348458 0.04166666666666666 0  0.3705904774487813 0.04166666666666666 0  0.4024548389919803 0.04166666666666666 0  0.4347369038900211 0.04166666666666666 0  0.467298435384978 0.04166666666666666 0  0.5000000000000517 0.04166666666666666 0  0.5327015646151253 0.04166666666666666 0  0.5652630961100813 0.04166666666666666 0  0.5975451610081212 0.04166666666666666 0  0.6294095225513188 0.04166666666666666 0  0.6607197326516399 0.04166666666666666 0  0.6913417161826045 0.04166666666666666 0  0.7211443451095605 0.04166666666666666 0  0.7500000000000597 0.04166666666666666 0  0.7777851165098603 0.04166666666666666 0  0.8043807145044185 0.04166666666666666 0  0.829672907550091 0.04166666666666666 0  0.8535533905933287 0.04166666666666666 0  0.8759199037395413 0.04166666666666666 0  0.8966766701456674 0.04166666666666666 0  0.9157348061513193 0.04166666666666666 0  0.9330127018922625 0.04166666666666666 0  0.9484363707663832 0.04166666666666666 0  0.961939766255678 0.04166666666666666 0  0.9734650647475827 0.04166666666666666 0  0.9829629131445586 0.04166666666666666 0  0.9903926402016341 0.04166666666666666 0  0.9957224306869181 0.04166666666666666 0  0.9989294616193084 0.04166666666666666 0  1 0.04166666666666666 0  0 0.0625 0  0.001070538380698371 0.0625 0  0.004277569313095364 0.0625 0  0.009607359798386061 0.0625 0  0.01703708685546806 0.0625 0  0.02653493525245065 0.0625 0  0.03806023374436157 0.0625 0  0.05156362923366253 0.0625 0  0.06698729810778931 0.0625 0  0.08426519384873815 0.0625 0  0.1033233298543955 0.0625 0  0.1240800962605269 0.0625 0  0.1464466094067445 0.0625 0  0.1703270924499866 0.0625 0  0.1956192854956637 0.0625 0  0.2222148834902257 0.0625 0  0.2500000000000299 0.0625 0  0.2788556548905322 0.0625 0  0.308658283817491 0.0625 0  0.339280267348458 0.0625 0  0.3705904774487813 0.0625 0  0.4024548389919803 0.0625 0  0.4347369038900211 0.0625 0  0.467298435384978 0.0625 0  0.5000000000000517 0.0625 0  0.5327015646151253 0.0625 0  0.5652630961100813 0.0625 0  0.5975451610081212 0.0625 0  0.6294095225513188 0.0625 0  0.6607197326516399 0.0625 0  0.6913417161826045 0.0625 0  0.7211443451095605 0.0625 0  0.7500000000000597 0.0625 0  0.7777851165098603 0.0625 0  0.8043807145044185 0.0625 0  0.829672907550091 0.0625 0  0.8535533905933287 0.0625 0  0.8759199037395413 0.0625 0  0.8966766701456674 0.0625 0  0.9157348061513193 0.0625 0  0.9330127018922625 0.0625 0  0.9484363707663832 0.0625 0  0.961939766255678 0.0625 0  0.9734650647475827 0.0625 0  0.9829629131445586 0.0625 0  0.9903926402016341 0.0625 0  0.9957224306869181 0.0625 0  0.9989294616193084 0.0625 0  1 0.0625 0  0 0.08333333333333333 0  0.001070538380698371 0.08333333333333333 0  0.004277569313095364 0.08333333333333333 0  0.009607359798386061 0.08333333333333333 0  0.01703708685546806 0.08333333333333333 0  0.02653493525245065 0.08333333333333333 0  0.03806023374436157 0.08333333333333333 0  0.05156362923366253 0.08333333333333333 0  0.06698729810778931 0.08333333333333333 0  0.08426519384873815 0.08333333333333333 0  0.1033233298543955 0.08333333333333333 0  0.1240800962605269 0.08333333333333333 0  0.1464466094067445 0.08333333333333333 0  0.1703270924499866 0.08333333333333333 0  0.1956192854956637 0.08333333333333333 0  0.2222148834902257 0.08333333333333333 0  0.2500000000000299 0.08333333333333333 0  0.2788556548905322 0.08333333333333333 0  0.308658283817491 0.08333333333333333 0  0.339280267348458 0.08333333333333333 0  0.3705904774487813 0.08333333333333333 0  0.4024548389919803 0.08333333333333333 0  0.4347369038900211 0.08333333333333333 0  0.467298435384978 0.08333333333333333 0  0.5000000000000517 0.08333333333333333 0  0.5327015646151253 0.08333333333333333 0  0.5652630961100813 0.08333333333333333 0  0.5975451610081212 0.08333333333333333 0  0.6294095225513188 0.08333333333333333 0  0.6607197326516399 0.08333333333333333 0  0.6913417161826045 0.08333333333333333 0  0.7211443451095605 0.08333333333333333 0  0.7500000000000597 0.08333333333333333 0  0.7777851165098603 0.08333333333333333 0  0.8043807145044185 0.08333333333333333 0  0.829672907550091 0.08333333333333333 0  0.8535533905933287 0.08333333333333333 0  0.8759199037395413 0.08333333333333333 0  0.8966766701456674 0.08333333333333333 0  0.9157348061513193 0.08333333333333333 0  0.9330127018922625 0.08333333333333333 0  0.9484363707663832 0.08333333333333333 0  0.961939766255678 0.08333333333333333 0  0.9734650647475827 0.08333333333333333 0  0.9829629131445586 0.08333333333333333 0  0.9903926402016341 0.08333333333333333 0  0.9957224306869181 0.08333333333333333 0  0.9989294616193084 0.08333333333333333 0  1 0.08333333333333333 0  0 0.1041666666666667 0  0.001070538380698371 0.1041666666666667 0  0.004277569313095364 0.1041666666666667 0  0.009607359798386061 0.1041666666666667 0  0.01703708685546806 0.1041666666666667 0  0.02653493525245065 0.1041666666666667 0  0.03806023374436157 0.1041666666666667 0  0.05156362923366253 0.1041666666666667 0  0.06698729810778931 0.1041666666666667 0  0.08426519384873815 0.1041666666666667 0  0.1033233298543955 0.1041666666666667 0  0.1240800962605269 0.1041666666666667 0  0.1464466094067445 0.1041666666666667 0  0.1703270924499866 0.1041666666666667 0  0.1956192854956637 0.1041666666666667 0  0.2222148834902257 0.1041666666666667 0  0.2500000000000299 0.1041666666666667 0  0.2788556548905322 0.1041666666666667 0  0.308658283817491 0.1041666666666667 0  0.339280267348458 0.1041666666666667 0  0.3705904774487813 0.1041666666666667 0  0.4024548389919803 0.1041666666666667 0  0.4347369038900211 0.1041666666666667 0  0.467298435384978 0.1041666666666667 0  0.5000000000000517 0.1041666666666667 0  0.5327015646151253 0.1041666666666667 0  0.5652630961100813 0.1041666666666667 0  0.5975451610081212 0.1041666666666667 0  0.62
[...]
<PointData  Scalars="f_17182053"> 
<DataArray  type="Float64"  Name="f_17182053"  format="ascii">4.9627485652939036e+00  4.9624272053848415e+00  4.9675638201742691e+00  4.9816595444690410e+00  5.0146593631962935e+00  5.0801064980671509e+00  5.1555209840113401e+00  5.2798377984387859e+00  5.4057821481385950e+00  5.5858152817462114e+00  5.8248488676529622e+00  6.0352517810298201e+00  6.2695664192592897e+00  6.5523353216546347e+00  6.8626147523036050e+00  7.2307666389936296e+00  7.6851554086560849e+00  8.0531255033325433e+00  8.5201565806195383e+00  8.9507747960542048e+00  9.4637805319036890e+00  9.9352182653526988e+00  1.0422185974275878e+01  1.0886861027050518e+01  1.1381801170956477e+01  1.1858087141535558e+01  1.2299459893354785e+01  1.2749848260663324e+01  1.3185965243533310e+01  1.3552465638664611e+01  1.3870022758227924e+01  1.4154314092173109e+01  1.4363666732922521e+01  1.4521252636806157e+01  1.4630470576430161e+01  1.4696730185751488e+01  1.4726141898702474e+01  1.4726301806052108e+01  1.4699615142111142e+01  1.4653197542237411e+01  1.4592116643310156e+01  1.4508656833015861e+01  1.4419801967939680e+01  1.4332907958700220e+01  1.4264285211172094e+01  1.4217138331255551e+01  1.4177957791120065e+01  1.4161147143148797e+01  1.4164518573713243e+01  4.9333498552690633e+00  4.9338215911611334e+00  4.9385851618670191e+00  4.9549865560813977e+00  4.9843619147638982e+00  5.0374067663676456e+00  5.1133495100744879e+00  5.2345705724085407e+00  5.3599687763292208e+00  5.5512951061070206e+00  5.7564035375180715e+00  6.0029618153807540e+00  6.2100765436992864e+00  6.4906257833531757e+00  6.8190410176462812e+00  7.1542712573175296e+00  7.5948520618141186e+00  8.0288358903213712e+00  8.4431164085913171e+00  8.9082479417955760e+00  9.3633551115803435e+00  9.8603461300558166e+00  1.0308592411124465e+01  1.0809380177161794e+01  1.1283209375009625e+01  1.1770671429057902e+01  1.2205975790875296e+01  1.2675166195019372e+01  1.3105279544297272e+01  1.3490924238959716e+01  1.3834705107542517e+01  1.4123546802027722e+01  1.4358853166677052e+01  1.4534962662069971e+01  1.4663447230429965e+01  1.4748194904339980e+01  1.4797368231965732e+01  1.4810125133090086e+01  1.4799523751703205e+01  1.4754309062190513e+01  1.4694651430389138e+01  1.4625461394469902e+01  1.4543805635220737e+01  1.4452355014227976e+01  1.4377904300065572e+01  1.4321162707849004e+01  1.4286513756276547e+01  1.4272575104087776e+01  1.4270936289496550e+01  4.9045081453080943e+00  4.9047054953407292e+00  4.9084080175245806e+00  4.9214693425050280e+00  4.9457292607388714e+00  4.9933611548745551e+00  5.0553584922043173e+00  5.1715337242191710e+00  5.2913146120436636e+00  5.4683594422507200e+00  5.6932052669638482e+00  5.8955166997359711e+00  6.1345560866728590e+00  6.3551442059680303e+00  6.6868442024322539e+00  7.0552828653721207e+00  7.3826142472777470e+00  7.8855446070077750e+00  8.2818624893885726e+00  8.7147228218229191e+00  9.1734717222900262e+00  9.6652208878138115e+00  1.0134736180756107e+01  1.0606145549482754e+01  1.1096214202175265e+01  1.1597355466134463e+01  1.2051889231009520e+01  1.2481649015623134e+01  1.2940832365098155e+01  1.3350867691288494e+01  1.3720513218608783e+01  1.4052500331112162e+01  1.4328366804653230e+01  1.4559118101027332e+01  1.4725527587803462e+01  1.4843143094625225e+01  1.4923464741821036e+01  1.4967728570216547e+01  1.4965991181812170e+01  1.4940934707391071e+01  1.4880308373450291e+01  1.4809577592079478e+01  1.4717335172455222e+01  1.4621474833807813e+01  1.4535210068615667e+01  1.4478376140562558e+01  1.4440384479281457e+01  1.4426938970772278e+01  1.4428588296830361e+01  4.8904312394183043e+00  4.8908797943739053e+00  4.8931858804961275e+00  4.9032061520763177e+00  4.9242551485158685e+00  4.9570472229561631e+00  5.0192874689497300e+00  5.1069681965344502e+00  5.2303628497303487e+00  5.3728653790039207e+00  5.6151755527694585e+00  5.8131256594760741e+00  6.0129641005993779e+00  6.2686562356273559e+00  6.5086511729011836e+00  6.8875368123929688e+00  7.2677070956131491e+00  7.6675237073977689e+00  8.1267983040628415e+00  8.5553370582287300e+00  8.9627687404250835e+00  9.4657312309036321e+00  9.8979134784657479e+00  1.0370559272225414e+01  1.0876249677516920e+01  1.1364115133873060e+01  1.1868232361916514e+01  1.2314414316027330e+01  1.2725957337571723e+01  1.3175085772322987e+01  1.3572986562264996e+01  1.3943967941575615e+01  1.4260098398922846e+01  1.4558446335173491e+01  1.4773656316022370e+01  1.4929040072046902e+01  1.5046092295149483e+01  1.5094458290569552e+01  1.5096239928680570e+01  1.5062369567770670e+01  1.4993045437956056e+01  1.4905218004238698e+01  1.4812300879428989e+01  1.4721356374702545e+01  1.4633109828307708e+01  1.4579785973867242e+01  1.4541731655427311e+01  1.4533118175253229e+01  1.4532571067428602e+01  4.8892866393071452e+00  4.8894761613330937e+00  4.8897305414351848e+00  4.8976558217587076e+00  4.9152586709628379e+00  4.9451350849641997e+00  4.9920666502653051e+00  5.0621918253051517e+00  5.1841379607954154e+00  5.3200675156462749e+00  5.4966695816314513e+00  5.7375448580855304e+00  5.9261459770642304e+00  6.1385134795659528e+00  6.4262964465641490e+00  6.6965389383149825e+00  7.1103914053636839e+00  7.4642133261285100e+00  7.9250314221974767e+00  8.3474519158852143e+00  8.7907445326603089e+00  9.2535547563740153e+00  9.7470308420495915e+00  1.0143781467954106e+01  1.0637316261245324e+01  1.1100704812372332e+01  1.1645999634028209e+01  1.2093676533420625e+01  1.2539246924547099e+01  1.2997393125432501e+01  1.3432113078159821e+01  1.3800959203748027e+01  1.4184659259775453e+01  1.4492123518152056e+01  1.4752581453670940e+01  1.4953857500660787e+01  1.5081993741627228e+01  1.5140133506038266e+01  1.5135536564863466e+01  1.5085806109714353e+01  1.5016186728701383e+01  1.4914651030054273e+01  1.4820998214511068e+01  1.4733523439602541e+01  1.4668002719188404e+01  1.4612695172804544e+01  1.4579771379243645e+01  1.4567957725811587e+01  1.4567976294895486e+01  4.9047702112367046e+00  4.9047081567616058e+00  4.9056194558374688e+00  4.9103042593497754e+00  4.9233491609326219e+00  4.9475737804330491e+00  4.9832566622994152e+00  5.0532999418012778e+00  5.1422625241093467e+00  5.2715738870541147e+00  5.4283553517137086e+00  5.6210537147080029e+00  5.8478322206641922e+00  6.0495943153195828e+00  6.2889290605278276e+00  6.6053713668315535e+00  6.9242249799962607e+00  7.3184162155592434e+00  7.7109212374098179e+00  8.1344871819838556e+00  8.5768153708016648e+00  9.0245857049509759e+00  9.4995088408330872e+00  9.9792363799603674e+00  1.0421508114312388e+01  1.0925899525721240e+01  1.1378415688475963e+01  1.1905825886672432e+01  1.2346992774100903e+01  1.2796539376129981e+01  1.3264312809771758e+01  1.3667322577935213e+01  1.4061282030733285e+01  1.4397478987432494e+01  1.4657689227654199e+01  1.4878469997586713e+01  1.5027136537986074e+01  1.5086535555379287e+01  1.5091915896392512e+01  1.5035115075313664e+01  1.4953788232101356e+01  1.4861052525648995e+01  1.4762356455809588e+01  1.4676028442067985e+01  1.4620182879893836e+01  1.4574525842654980e+01  1.4547190004694439e+01  1.4538179813962207e+01  1.4537340140283352e+01  4.9401250170891755e+00  4.9400315945270901e+00  4.9410169322310482e+00  4.9440021183560221e+00  4.9537237527595748e+00  4.9723055299752152e+00  5.0001212390190810e+00  5.0524651361561004e+00  5.1371125138088765e+00  5.2260492404050662e+00  5.3847411261741103e+00  5.5533425843594548e+00  5.7283533284008170e+00  5.9708129752313646e+00  6.1971710497180332e+00  6.4604373569498605e+00  6.8076467820893827e+00  7.1599510331022707e+00  7.5165372540125510e+00  7.9436179129447346e+00  8.3597034550796323e+00  8.8398739483968800e+00  9.2990787332686153e+00  9.7307758463437750e+00  1.0236725646077208e+01  1.0721233341707118e+01  1.1200802437627427e+01  1.1663126422960749e+01  1.2137436953221689e+01  1.2613427212696104e+01  1.3067244584849336e+01  1.3490338006697170e+01  1.3886024093055983e+01  1.4243662523306549e+01  1.4517237547349211e+01  1.4715216179649131e+01  1.4878446507315838e+01  1.4943612802925355e+01  1.4961101007876524e+01  1.4910915925160641e+01  1.4833631885586192e+01  1.4744228239218577e+01  1.4647593393575075e+01  1.4568013173348650e+01  1.4512385456660123e+01  1.4473145235351222e+01  1.4451761985193304e+01  1.4446955039786324e+01  1.4446768476686435e+01  4.9990327400156431e+00  4.9991533328151752e+00  5.0008279202915835e+00  5.0041859630349945e+00  5.0118533569581682e+00  5.0302961472140746e+00  5.0501186451224509e+00  5.0790906822335176e+00  5.1382847425211171e+00  5.2297668037396967e+00  5.3539233550682965e+00  5.5082595070754774e+00  5.6566948304787541e+00  5.8680431233394126e+00  6.1120126569246729e+00  6.3724779552420934e+00  6.6617232871480896e+00  7.0107594812930589e+00  7.3591411591591989e+00  7.7485953985472582e+00  8.1365646643613587e+00  8.5777408105973905e+00  9.0813582569163369e+00  9.5137386025710438e+00  9.9568167338536444e+00  1.0463700687403428e+01  1.0974615039124537e+01  1.1414352758636307e+01  1.1910253145999979e+01  1.2397691694904905e+01  1.2853372899425448e+01  1.3301035313084604e+01  1.3682936105287995e+01  1.4018700891610727e+01  1.4327974194593779e+01  1.4542497127962848e+01  1.4689554350061410e+01  1.4759948244164953e+01  1.4759171402222234e+01  1.4718408498901502e+01  1.4642930360987060e+01  1.4559954705156937e+01  1.4474198133015605e+01  1.4401271950595790e+01  1.4354247206378343e+01  1.4318087656479085e+01  1.4301448828820137e+01  1.4296710499393649e+01  1.4296388218943848e+01  5.0790839827619676e+00  5.0789971550799651e+00  5.0798383468005230e+00  5.0846209077960429e+00  5.0928424331507234e+00  5.1032188495612223e+00  5.1214158197459385e+00  5.1476466469839828e+00  5.1931555420464663e+00  5.2646001122492239e+00  5.3670364132333734e+00  5.4763119216042044e+00  5.6217135000794887e+00  5.8000087485015985e+00  6.0131601943182664e+00  6.2834678675600877e+00  6.5546001259923363e+00  6.8614706397213547e+00  7.2042545582389286e+00  7.5750938576957720e+00  7.9681270104697202e+00  8.3690311686598804e+00  8.8336044622591512e+00  9.2986871888581462e+00  9.7583047185606251e+00  1.0228334827913400e+01  1.0704618145954724e+01  1.1211316992769497e+01  1.1661787251977133e+01  1.2144480225140505e+01  1.2629519093842520e+01  1.3066463989499495e+01  1.3465254497806852e+01  1.3801282836866251e+01  1.4076252319831465e+01  1.4283918176679862e+01  1.4455468571917496e+01  1.4526430687769439e+01  1.4527232830074906e+01  1.4489332203261398e+01  1.4417651163548497e+01  1.4332703522927025e+01  1.4263521835411634e+01  1.4201112112149071e+01  1.4153976826718546e+01  1.4118696167836855e+01  1.4104858106789496e+01  1.4100970580769442e+01  1.4101498705953254e+01  5.1768911627303744e+00  5.1768442625454831e+00  5.1773286288000770e+00  5.1804046445438585e+00  5.1887931386070338e+00  5.2005750461286571e+00  5.2112833968097689e+00  5.2354724184073245e+00  5.2693251204923497e+00  5.3219932388062201e+00  5.4021495074351424e+00  5.4985682549810440e+00  5.6310388019675042e+00  5.7790611257760229e+00  5.9592342503307973e+00  6.2073107061522368e+00  6.4613130278830511e+00  6.7491684456303167e+00  7.0630910984509718e+00  7.4067319212294898e+00  7.7777537468051898e+00  8.1845396267966883e+00  8.6319199484364848e+00  9.0563330055487850e+00  9.5597854965610036e+00  1.0031508811075909e+01  1.0519773339660475e+01  1.0956242622381955e+01  1.1452127499786485e+01  1.1900896221641384e+01  1.2385213732400116e+01  1.2806049098477276e+01  1.3216741857897839e+01  1.3556131492614101e+01  1.3836342419427794e+01  1.4039414932631258e+01  1.4160692931770331e+01  1.4249846690254232e+01  1.4256200480529506e+01  1.4222377253338292e+01  1.4151903470241772e+01  1.4081351493016319e+01  1.4015903850165952e+01  1.3952818283768979e+01  1.3915867989631542e+01  1.3887343498478289e+01  1.3872811620601492e+01  1.3865111686009262e+01  1.3863715416912244e+01  5.2945174480681834e+00  5.2943669581624526e+00  5.2955916836102332e+00  5.2999519196112832e+00  5.3031908534547183e+00  5.3115435228657288e+00  5.3240097563294810e+00  5.3398144185569212e+00  5.3671826633536446e+00  5.4176023159655573e+00  5.4778089636710545e+00  5.5607399593682585e+00  5.6683615859849699e+00  5.8007765135289233e+00  5.9584431917440694e+00  6.1513810050998954e+00  6.3949725543138145e+00  6.6597350819687060e+00  6.9582368461460504e+00  7.2640884905382279e+00  7.6042003477257492e+00  8.0093803318699290e+00  8.4104416957538479e+00  8.8728980959973782e+00  9.2947062490837400e+00  9.7874566798426645e+00  1.0297082732226235e+01  1.0774649812973916e+01  1.1209278074055241e+01  1.1687983010398654e+01  1.2127207117680594e+01  1.2548314032950222e+01  1.2946103806642633e+01  1.3288937286031024e+01  1.3539073911467687e+01  1.3749151085741644e+01  1.3889372028731657e+01  1.3921861189199971e+01  1.3945426346421092e+01  1.3913991711489349e+01  1.3867374489190700e+01  1.3800428333979076e+01  1.3732492407609607e+01  1.3674752274963838e+01  1.3639717790569753e+01  1.3613070128922169e+01  1.3598173786490589e+01  1.3591521662424574e+01  1.3591305326453158e+01  5.4325835728141447e+00  5.4324862040235793e+00  5.4341408028634097e+00  5.4364268601811743e+00  5.4411536868685655e+00  5.4470029839953433e+00  5.4601904997734909e+00  5.4772218325825861e+00  5.5110275490226561e+00  5.5501530697327377e+00  5.5976723317351187e+00  5.6656768082740747e+00  5.7473988698296621e+00  5.8611399612243398e+00  5.9863383429229122e+00  6.1504211475524952e+00  6.3426094690461809e+00  6.5879889898335593e+00  6.8553643255696688e+00  7.1340136209992586e+00  7.4503928751160426e+00  7.8433787181247219e+00  8.2456590295736802e+00  8.6626511687090897e+00  9.1370706966304045e+00  9.5729354480025801e+00  1.0027455675150202e+01  1.0535325226002625e+01  1.0980529161095875e+01  1.1433326156155042e+01  1.1858018789828694e+01  1.2257558886378863e+01  1.2626687498310583e+01  1.3004889812921339e+01  1.3252721372158053e+01  1.3412972960162774e+01  1.3559720280606614e+01  1.3633039130968383e+01  1.3627265324011768e+01  1.3606216738036833e+01  1.3564878065679373e+01  1.3509293806154846e+01  1.3448394861937723e+01  1.3387289933610743e+01  1.3354313233456800e+01  1.3326642057897493e+01  1.3311252100909950e+01  1.3305789962103798e+01  1.3305469527887485e+01  5.5940496312093169e+00  5.5950189001195163e+00  5.5966583650960455e+00  5.5954803793773378e+00  5.6005287069172978e+00  5.6118686575417982e+00  5.6252373542515128e+00  5.6391375290854970e+00  5.6642603309557975e+00  5.7089506286780818e+00  5.7493037681483798e+00  5.8035339978745508e+00  5.8721643265785621e+00  5.9574119171700701e+00  6.0595200968991287e+00  6.1918521935818385e+00  6.3379445567815127e+00  6.5454370427500423e+00  6.7753010048347155e+00  7.0473166972454386e+00  7.3227627708607974e+00  7.6805717333824592e+00  8.0626976686618832e+00  8.4441608188934900e+00  8.8927839404014062e+00  9.3684078076903479e+00  9.8021682724707393e+00  1.0273167040980278e+01  1.0704162738059900e+01  1.1170252658809121e+01  1.1586481424845912e+01  1.1968418307450827e+01  1.2317148672750474e+01  1.2644952620547437e+01  1.2936474097012811e+01  1.3131135815747639e+01  1.3250273687688946e+01  1.3322444632214943e+01  1.3315565151696303e+01  1.3288560935232274e+01  1.3248800355720595e+01  1.3196013990745605e+01  1.3151244437087202e+01  1.3102261728458222e+01  1.3072530835409319e+01  1.3038625842109003e+01  1.3020392565828006e+01  1.3013279795868185e+01  1.3013489513077817e+01  5.7913592996531102e+00  5.7910432015255697e+00  5.7891278310309033e+00  5.7929630578640783e+00  5.8011771078947501e+00  5.8098413952184069e+00  5.8135627151332567e+00  5.8345179689581412e+00  5.8619262755090888e+00  5.8893358153766062e+00  5.9343434014986718e+00  5.9800734387933154e+00  6.0207684652374729e+00  6.0736191862864723e+00  6.1596454753834555e+00  6.2648792617213589e+00  6.3757948911962847e+00  6.5324971712141933e+00  6.7218774882745391e+00  6.9645882160358514e+00  7.2169162507193683e+00  7.5365474602156057e+00  7.8970171201211787e+00  8.2669505465109072e+00  8.6596576073195255e+00  9.1167758970707382e+00  9.5777387655536064e+00  1.0005353694004047e+01  1.0454573748992489e+01  1.0872114491595545e+01  1.1338506374628956e+01  1.1695549664052935e+01  1.2014753783192077e+01  1.2336362143525484e+01  1.2595531648669711e+01  1.2791927211183713e+01  1.2921595919834044e+01  1.2992732720362667e+01  1.3009284341254412e+01  1.2977552239645744e+01  1.2917580275033485e+01  1.2870977532301279e+01  1.2828705644674265e+01  1.2794986047251861e+01  1.2765532445424091e+01  1.2740237202483947e+01  1.2727590255250171e+01  1.2719646389162255e+01  1.2719805657681595e+01  6.0172595680386012e+00  6.0169997647729314e+00  6.0172363425740514e+00  6.0253238601238728e+00  6.0377749774070919e+00  6.0398506802482235e+00  6.0526640445018423e+00  6.0666868074602842e+00  6.1024709571039670e+00  6.1257310368421587e+00  6.1447524193876477e+00  6.1764617637897006e+00  6.2005169105873401e+00  6.2400811927124664e+00  6.2927564424283133e+00  6.3615209303047386e+00  6.4446639960154588e+00  6.5609340819063506e+00  6.7068118291884868e+00  6.8890200183232357e+00  7.1283213548831474e+00  7.4159009574477039e+00  7.7334291824979591e+00  8.0958786232394928e+00  8.4707113259194458e+00  8.8938421214225265e+00  9.3422166485020703e+00  9.7962030830265263e+00  1.0198642484593181e+01  1.0603579807760923e+01  1.1008840947970581e+01  1.1417552572804556e+01  1.1737166641794099e+01  1.2008828420507697e+01  1.2248357620159599e+01  1.2432201199149636e+01  1.2529473678142459e+01  1.2602678503672408e+01  1.2628118556207184e+01  1.2627710229195054e+01  1.2586926644035874e+01  1.2555506237780527e+01  1.2503131483154505e+01  1.2457178159111809e+01  1.2432630120940432e+01  1.2414340786304312e+01  1.2404782378375927e+01  1.2401541859440323e+01  1.2402310769461364e+01  6.2615169747498074e+00  6.2615405091300707e+00  6.2641198919369927e+00  6.2675605130444838e+00  6.2729650959089103e+00  6.2886729306944833e+00  6.3004426808751823e+00  6.3235256252293848e+00  6.3489872664295444e+00  6.3706450751386150e+00  6.3737669993948680e+00  6.3836469505625724e+00  6.4023001081965640e+00  6.4370090297044875e+00  6.4742792571797105e+00  6.5007719991854556e+00  6.5539743515738582e+00  6.6290711342155584e+00  6.7253232559289051e+00  6.8621017726725837e+00  7.0451488412713470e+00  7.2957684758036212e+00  7.5937141221112592e+00  7.9050807146143116e+00  8.2863218613850780e+00  8.6628438425048166e+00  9.0864488551013984e+00  9.5503983093530138e+00  9.9493099630363915e+00  1.0337983848355984e+01  1.0688249396329633e+01  1.1063152909688435e+01  1.1368135744604409e+01  1.1658546764931392e+01  1.1895378626102357e+01  1.2093693662511354e+01  1.2201708186876596e+01  1.2261141630252357e+01  1.2278602077410072e+01  1.2259196807849122e+01  1.2249030587109146e+01  1.2204331278391948e+01  1.2164568204375598e+01  1.2135389030334661e+01  1.2102070769422456e+01  1.2081355171087383e+01  1.2074501210352032e+01  1.2073692784737293e+01  1.2074603720709575e+01  6.5319854709107812e+00  6.5321746433144137e+00  6.5344858504687862e+00  6.5385103033892840e+00  6.5398415520698494e+00  6.5456733721726748e+00  6.5798564023826991e+00  6.6075633390664539e+00  6.6131259419101083e+00  6.6244291937842901e+00  6.6458611538744377e+00  6.6533962302859617e+00  6.6602764992638930e+00  6.6632907447603413e+00  6.6596396976631720e+00  6.6680029171341113e+00  6.6929313019041539e+00  6.7232214577383651e+00  6.7785445474511006e+00  6.8642192655646310e+00  6.9920636689015456e+00  7.1897437216325510e+00  7.4651353006874848e+00  7.7396619064571102e+00  8.1056175424990133e+00  8.4670170464581211e+00  8.8598532937880901e+00  9.2531122511095418e+00  9.6644895876723904e+00  1.0074107104879811e+01  1.0425790625220325e+01  1.0760619485989571e+01  1.1064300751549885e+01  1.1328433920892358e+01  1.1538086231007092e+01  1.1714835369834242e+01  1.1832861696951216e+01  1.1892090238604503e+01  1.1933080032886124e+01  1.1908155398765322e+01  1.1882590801606103e+01  1.1852409485146579e+01  1.1806636305233420e+01  1.1773728954832400e+01  1.1757141803992536e+01  1.17464