<?xml version="1.0"?>
<VTKFile type="UnstructuredGrid"  version="0.1"  >
<UnstructuredGrid>
<Piece  NumberOfPoints="3160" NumberOfCells="5316">
<Points>
<DataArray  type="Float64"  NumberOfComponents="3"  format="ascii">1.25 0 0  1.249623523370255 0.03067653565364036 0  1.248494320256466 0.06133459290927252 0  1.246613070848363 0.09195570449958429 0  1.243980908340246 0.1225214254119508 0  1.240599418248387 0.1530133439990203 0  1.236470637455976 0.1834130930692022 0  1.231597052986177 0.2137023609503765 0  1.225981600504038 0.2438629025201603 0  1.219627662548161 0.2738765501960873 0  1.21253906649318 0.3037252248790798 0  1.2047200822443 0.333390946843623 0  1.196175419665261 0.3628558465680779 0  1.186910225741296 0.3921021754986144 0  1.176930081478776 0.4211123167402751 0  1.166240998543424 0.4498687956687352 0  1.154849415639108 0.4783542904563622 0  1.142762194629413 0.5065516425062373 0  1.129986616404304 0.5344438667878526 0  1.116530376494394 0.5620141620682582 0  1.102401580435444 0.5892459210324971 0  1.087608738885889 0.61612274028723 0  1.07216076250034 0.642628430241527 0  1.056066956562134 0.6687470248588714 0  1.039337015378182 0.6944627912745027 0  1.02198101643948 0.7197602392723067 0  1.004009414350806 0.7446241306155417 0  0.9854330345332579 0.7690394882257835 0  0.9662630667034212 0.7929916052045569 0  0.9465110581331058 0.8164660536922209 0  0.9261889066936989 0.8394486935587729 0  0.9053088536893338 0.8619256809213336 0  0.8838834764831844 0.8838834764831843 0  0.8619256809213337 0.9053088536893337 0  0.8394486935587729 0.9261889066936989 0  0.8164660536922209 0.9465110581331055 0  0.7929916052045569 0.9662630667034212 0  0.7690394882257835 0.9854330345332578 0  0.7446241306155419 1.004009414350806 0  0.7197602392723067 1.02198101643948 0  0.6944627912745028 1.039337015378182 0  0.6687470248588716 1.056066956562134 0  0.642628430241527 1.07216076250034 0  0.6161227402872301 1.087608738885889 0  0.5892459210324973 1.102401580435444 0  0.5620141620682583 1.116530376494394 0  0.5344438667878527 1.129986616404304 0  0.5065516425062373 1.142762194629413 0  0.4783542904563623 1.154849415639108 0  0.4498687956687353 1.166240998543424 0  0.4211123167402751 1.176930081478776 0  0.3921021754986145 1.186910225741296 0  0.3628558465680779 1.196175419665261 0  0.333390946843623 1.2047200822443 0  0.30372522487908 1.21253906649318 0  0.2738765501960872 1.219627662548161 0  0.2438629025201604 1.225981600504038 0  0.2137023609503767 1.231597052986177 0  0.1834130930692022 1.236470637455976 0  0.1530133439990203 1.240599418248387 0  0.122521425411951 1.243980908340246 0  0.09195570449958432 1.246613070848363 0  0.06133459290927266 1.248494320256466 0  0.03067653565364033 1.249623523370255 0  7.654042494670958e-17 1.25 0  -0.03067653565364018 1.249623523370255 0  -0.06133459290927251 1.248494320256466 0  -0.09195570449958416 1.246613070848363 0  -0.1225214254119508 1.243980908340246 0  -0.1530133439990202 1.240599418248387 0  -0.1834130930692021 1.236470637455976 0  -0.2137023609503766 1.231597052986177 0  -0.2438629025201602 1.225981600504038 0  -0.2738765501960871 1.219627662548161 0  -0.3037252248790798 1.21253906649318 0  -0.3333909468436229 1.2047200822443 0  -0.3628558465680777 1.196175419665261 0  -0.3921021754986143 1.186910225741296 0  -0.4211123167402749 1.176930081478776 0  -0.4498687956687352 1.166240998543424 0  -0.4783542904563621 1.154849415639108 0  -0.5065516425062372 1.142762194629413 0  -0.5344438667878524 1.129986616404304 0  -0.5620141620682584 1.116530376494394 0  -0.5892459210324972 1.102401580435444 0  -0.61612274028723 1.087608738885889 0  -0.642628430241527 1.07216076250034 0  -0.6687470248588713 1.056066956562134 0  -0.6944627912745025 1.039337015378182 0  -0.7197602392723067 1.02198101643948 0  -0.7446241306155417 1.004009414350806 0  -0.7690394882257834 0.9854330345332579 0  -0.7929916052045567 0.9662630667034213 0  -0.8164660536922207 0.9465110581331059 0  -0.8394486935587731 0.9261889066936988 0  -0.8619256809213337 0.9053088536893337 0  -0.8838834764831843 0.8838834764831844 0  -0.9053088536893334 0.8619256809213338 0  -0.9261889066936986 0.8394486935587732 0  -0.9465110581331058 0.8164660536922208 0  -0.9662630667034212 0.7929916052045569 0  -0.9854330345332578 0.7690394882257836 0  -1.004009414350806 0.7446241306155419 0  -1.02198101643948 0.7197602392723068 0  -1.039337015378182 0.6944627912745027 0  -1.056066956562134 0.6687470248588714 0  -1.07216076250034 0.6426284302415273 0  -1.087608738885889 0.6161227402872302 0  -1.102401580435444 0.5892459210324973 0  -1.116530376494394 0.5620141620682586 0  -1.129986616404304 0.5344438667878525 0  -1.142762194629413 0.5065516425062374 0  -1.154849415639108 0.4783542904563624 0  -1.166240998543424 0.4498687956687354 0  -1.176930081478776 0.4211123167402754 0  -1.186910225741296 0.3921021754986143 0  -1.196175419665261 0.362855846568078 0  -1.2047200822443 0.3333909468436231 0  -1.21253906649318 0.3037252248790801 0  -1.219627662548161 0.2738765501960876 0  -1.225981600504038 0.2438629025201608 0  -1.231597052986177 0.2137023609503765 0  -1.236470637455976 0.1834130930692023 0  -1.240599418248387 0.1530133439990204 0  -1.243980908340246 0.122521425411951 0  -1.246613070848363 0.09195570449958466 0  -1.248494320256466 0.06133459290927246 0  -1.249623523370255 0.03067653565364041 0  -1.25 1.530808498934192e-16 0  -1.249623523370255 -0.0306765356536401 0  -1.248494320256466 -0.06133459290927215 0  -1.246613070848363 -0.09195570449958437 0  -1.243980908340246 -0.1225214254119507 0  -1.240599418248387 -0.1530133439990201 0  -1.236470637455976 -0.183413093069202 0  -1.231597052986177 -0.2137023609503762 0  -1.225981600504038 -0.2438629025201605 0  -1.219627662548161 -0.2738765501960873 0  -1.21253906649318 -0.3037252248790798 0  -1.2047200822443 -0.3333909468436228 0  -1.196175419665261 -0.3628558465680776 0  -1.186910225741296 -0.392102175498614 0  -1.176930081478776 -0.4211123167402752 0  -1.166240998543424 -0.4498687956687352 0  -1.154849415639108 -0.4783542904563621 0  -1.142762194629413 -0.5065516425062371 0  -1.129986616404304 -0.5344438667878523 0  -1.116530376494394 -0.5620141620682583 0  -1.102401580435444 -0.5892459210324971 0  -1.087608738885889 -0.6161227402872299 0  -1.07216076250034 -0.6426284302415269 0  -1.056066956562134 -0.6687470248588712 0  -1.039337015378182 -0.6944627912745025 0  -1.02198101643948 -0.7197602392723067 0  -1.004009414350806 -0.7446241306155416 0  -0.9854330345332579 -0.7690394882257834 0  -0.9662630667034213 -0.7929916052045566 0  -0.946511058133106 -0.8164660536922207 0  -0.9261889066936989 -0.8394486935587731 0  -0.9053088536893338 -0.8619256809213336 0  -0.8838834764831847 -0.8838834764831843 0  -0.8619256809213338 -0.9053088536893334 0  -0.8394486935587733 -0.9261889066936986 0  -0.8164660536922214 -0.9465110581331053 0  -0.7929916052045574 -0.9662630667034209 0  -0.7690394882257841 -0.9854330345332574 0  -0.7446241306155414 -1.004009414350806 0  -0.7197602392723066 -1.02198101643948 0  -0.6944627912745027 -1.039337015378182 0  -0.6687470248588716 -1.056066956562134 0  -0.6426284302415273 -1.07216076250034 0  -0.6161227402872302 -1.087608738885889 0  -0.5892459210324973 -1.102401580435444 0  -0.5620141620682586 -1.116530376494394 0  -0.5344438667878531 -1.129986616404304 0  -0.506551642506238 -1.142762194629413 0  -0.4783542904563629 -1.154849415639108 0  -0.4498687956687349 -1.166240998543424 0  -0.4211123167402749 -1.176930081478776 0  -0.3921021754986143 -1.186910225741296 0  -0.3628558465680781 -1.196175419665261 0  -0.3333909468436231 -1.2047200822443 0  -0.3037252248790802 -1.21253906649318 0  -0.2738765501960876 -1.219627662548161 0  -0.2438629025201608 -1.225981600504038 0  -0.2137023609503771 -1.231597052986176 0  -0.1834130930692029 -1.236470637455976 0  -0.1530133439990199 -1.240599418248387 0  -0.1225214254119506 -1.243980908340246 0  -0.09195570449958419 -1.246613070848363 0  -0.06133459290927254 -1.248494320256466 0  -0.03067653565364049 -1.249623523370255 0  -2.296212748401287e-16 -1.25 0  0.03067653565364003 -1.249623523370255 0  0.06133459290927207 -1.248494320256466 0  0.09195570449958373 -1.246613070848363 0  0.1225214254119501 -1.243980908340246 0  0.1530133439990195 -1.240599418248387 0  0.1834130930692024 -1.236470637455976 0  0.2137023609503766 -1.231597052986177 0  0.2438629025201604 -1.225981600504038 0  0.2738765501960872 -1.219627662548161 0  0.3037252248790797 -1.21253906649318 0  0.3333909468436227 -1.2047200822443 0  0.3628558465680776 -1.196175419665261 0  0.3921021754986139 -1.186910225741296 0  0.4211123167402745 -1.176930081478776 0  0.4498687956687345 -1.166240998543424 0  0.4783542904563625 -1.154849415639108 0  0.5065516425062375 -1.142762194629413 0  0.5344438667878527 -1.129986616404304 0  0.5620141620682583 -1.116530376494394 0  0.589245921032497 -1.102401580435444 0  0.6161227402872298 -1.087608738885889 0  0.6426284302415269 -1.07216076250034 0  0.6687470248588712 -1.056066956562134 0  0.6944627912745023 -1.039337015378182 0  0.7197602392723061 -1.02198101643948 0  0.7446241306155411 -1.004009414350806 0  0.7690394882257838 -0.9854330345332576 0  0.792991605204557 -0.9662630667034211 0  0.8164660536922209 -0.9465110581331058 0  0.8394486935587729 -0.9261889066936989 0  0.8619256809213336 -0.9053088536893338 0  0.8838834764831842 -0.8838834764831847 0  0.9053088536893333 -0.8619256809213339 0  0.9261889066936986 -0.8394486935587733 0  0.9465110581331053 -0.8164660536922214 0  0.9662630667034209 -0.7929916052045574 0  0.9854330345332574 -0.7690394882257843 0  1.004009414350806 -0.7446241306155416 0  1.02198101643948 -0.7197602392723066 0  1.039337015378182 -0.6944627912745027 0  1.056066956562134 -0.6687470248588716 0  1.07216076250034 -0.6426284302415274 0  1.087608738885889 -0.6161227402872304 0  1.102401580435443 -0.5892459210324974 0  1.116530376494394 -0.5620141620682587 0  1.129986616404304 -0.5344438667878532 0  1.142762194629413 -0.50655164250623
[...]
<PointData  Scalars="f_5673125"> 
<DataArray  type="Float64"  Name="f_5673125"  format="ascii">-7.8311666936788926e-02  -6.1041377791838512e-02  -3.8415274631636458e-02  -1.9607074976296442e-02  3.1280921910652675e-04  1.9206101992946450e-02  3.9322741391829764e-02  6.0433667732072704e-02  8.0518146214617628e-02  9.8041213553880222e-02  1.1775884927797747e-01  1.3688624545531750e-01  1.5315976826687833e-01  1.7086610804660102e-01  1.9178285643431223e-01  2.1030092496280989e-01  2.2434992579037802e-01  2.3964605899840447e-01  2.5807800455544866e-01  2.7162659081625673e-01  2.8772237385012028e-01  3.0165061986423958e-01  3.1302819150526828e-01  3.2937187167011966e-01  3.4253893251295808e-01  3.5342199868090185e-01  3.6400422293719742e-01  3.7194695510214820e-01  3.8295982845110071e-01  3.9389531065527328e-01  3.9931982269292160e-01  4.0512752119420892e-01  4.0906977009206186e-01  4.1700723869806527e-01  4.2202520441375829e-01  4.2292105635573668e-01  4.2983726600180272e-01  4.1863570112931575e-01  4.2752912306344482e-01  4.3253034591213085e-01  4.1838481152654483e-01  4.1398352987725417e-01  4.2320864953930670e-01  4.1889546896387114e-01  4.0280334226048148e-01  4.0620921086019363e-01  4.0489404043613764e-01  3.8388857155265066e-01  3.7097832069384945e-01  3.6956764132450465e-01  3.6421879618180436e-01  3.4432586758249206e-01  3.3801467376962741e-01  3.1913047771173525e-01  2.9572667068688441e-01  2.9608754716843766e-01  2.6970700637339101e-01  2.5764579798191178e-01  2.4317005224345370e-01  2.0951564821519988e-01  2.0009334209406299e-01  1.7795926119205083e-01  1.4354150816908276e-01  1.2436173372597809e-01  1.0871717261147056e-01  8.0270802129400853e-02  7.0568202130164515e-02  3.3027012914446305e-02  1.8260502087668582e-02  -1.2664387367737723e-02  -3.4676167224566547e-02  -6.5214491181179821e-02  -1.0062475827371943e-01  -1.1143132129048891e-01  -1.2541016031192700e-01  -1.9366907313810150e-01  -1.9299503824111611e-01  -2.0919341952714554e-01  -2.5921519781375552e-01  -2.6836653204919592e-01  -2.5626786883871622e-01  -2.8807893089434861e-01  -2.9120028587226188e-01  -2.8142171353929202e-01  -3.0267996143667858e-01  -2.7914740865632609e-01  -2.6962926662828374e-01  -2.3497467537030053e-01  -1.6262968212480389e-01  -2.1756657422820042e-01  -2.3973586875891315e-01  -1.6574464943345896e-01  -9.6779468050058770e-02  -8.9687818750152928e-02  -9.8312007106461392e-03  2.1451455967561261e-02  1.3112279306860813e-01  2.0589952564328359e-01  2.9358573003786265e-01  3.5431440769812328e-01  4.2199990609798482e-01  4.8317558168728103e-01  5.2098797430980048e-01  5.7797021135739746e-01  6.2450648140427101e-01  6.3689450699891204e-01  6.4641585190904294e-01  6.3859111110360611e-01  6.1454161562487353e-01  5.5628830471448887e-01  5.1257338691372767e-01  4.2690312218536830e-01  3.4183726484992877e-01  2.8205087982482274e-01  2.2171039445488971e-01  1.2946147954565720e-01  3.4077617706472094e-02  -6.7889702165090215e-02  -1.5501923527763189e-01  -2.5999747758333769e-01  -3.9802106364787843e-01  -5.0894498083786233e-01  -6.6685080266470764e-01  -7.9559584867065514e-01  -9.0509894400736612e-01  -1.0585238924886451e+00  -1.1594822573230392e+00  -1.3076094101044846e+00  -1.4362758372782376e+00  -1.5232999305389880e+00  -1.6236629741796242e+00  -1.6824635708491094e+00  -1.7810682316696087e+00  -1.8874933104995442e+00  -1.9255773038959791e+00  -1.9719149404954717e+00  -1.9802604243191877e+00  -1.9895326269098284e+00  -1.9814754746819676e+00  -1.9330704935094936e+00  -1.8665421568141656e+00  -1.7887556054082279e+00  -1.7053322232979473e+00  -1.6066669794156809e+00  -1.5016760725312073e+00  -1.3944427756685986e+00  -1.2797634570137890e+00  -1.1681142575615466e+00  -1.0500739860635002e+00  -9.8410728517757629e-01  -8.8802515591060882e-01  -8.0223858734362774e-01  -7.0021556731474976e-01  -5.9624710878835718e-01  -4.9326993714179479e-01  -3.9176740377507885e-01  -3.0425569140959491e-01  -2.0962170172829053e-01  -1.5074646443688111e-01  -8.1037121369881310e-02  -4.1105986294069766e-02  1.8061156068758761e-02  9.9224257032408322e-02  1.5414345814845262e-01  2.2165151036238132e-01  3.0460859149611019e-01  3.4272466115405392e-01  3.5524907253869320e-01  3.3095365831672446e-01  3.0555262649953246e-01  3.5090535269357620e-01  3.7386656510293292e-01  3.5102304448465421e-01  3.8808343701127745e-01  4.0244387986128499e-01  3.7329269316046010e-01  3.7674984169487757e-01  3.7748947851329778e-01  3.5865136282935800e-01  3.3944256204647688e-01  3.6676842412941191e-01  3.6846483149777071e-01  3.3698137176243648e-01  3.2496424588453704e-01  2.9448171319715283e-01  2.6682587022799531e-01  2.7879619573954811e-01  2.3703568551025608e-01  2.3545797797699833e-01  1.9635864776595843e-01  1.7630904768487365e-01  1.4931770377615600e-01  1.1467471291661731e-01  1.0893490986984637e-01  7.1506164841654812e-02  5.6328008364160166e-02  2.0848039776423161e-02  -1.4554569204710087e-02  -3.6978355413811170e-02  -5.9522825576824319e-02  -7.8398543710340315e-02  -1.0016563836178329e-01  -1.3455314502482194e-01  -1.5933783049683578e-01  -1.7528809981149229e-01  -2.0162725703612353e-01  -2.2639087466497287e-01  -2.4143251611583014e-01  -2.6863079814214114e-01  -2.9023659665577184e-01  -3.0744643386325471e-01  -3.1667443100527692e-01  -3.3778809250551300e-01  -3.5595677136779225e-01  -3.7027917583125369e-01  -3.8538598420227088e-01  -3.9760048490681171e-01  -3.9769627488539488e-01  -4.0926997315707186e-01  -4.2865615949656966e-01  -4.2638408238562014e-01  -4.4059043065839676e-01  -4.4478623027117892e-01  -4.4501231671293812e-01  -4.4983171922695281e-01  -4.5023194598956451e-01  -4.5412901769492031e-01  -4.5246758605212106e-01  -4.4718110737814837e-01  -4.4927880705331907e-01  -4.4590595903459318e-01  -4.3416410616469980e-01  -4.2869780766374999e-01  -4.2698850498928198e-01  -4.1678364485164104e-01  -4.1143845835089865e-01  -3.9642701044519574e-01  -3.9268279654761495e-01  -3.7950768413431096e-01  -3.6899452685317852e-01  -3.5101780593915272e-01  -3.4338386752207234e-01  -3.2938938761741710e-01  -3.1231465982764600e-01  -2.9626304248553026e-01  -2.7981992253799470e-01  -2.6612696153450671e-01  -2.4537199031888635e-01  -2.3189238825609429e-01  -2.1312854513512108e-01  -1.9279698628949857e-01  -1.7619158405954469e-01  -1.5439764288198349e-01  -1.3777380563187930e-01  -1.1887420184763718e-01  -9.8429690135132322e-02  -6.4713600081620615e-01  -5.9505914714293251e-01  -5.3977313222283707e-01  -4.8752694525035406e-01  -4.3613469251812026e-01  -3.7644377142328361e-01  -3.2079560119668254e-01  -2.5979806744138328e-01  -2.0347999995238242e-01  -1.4571058470817300e-01  -9.1166014194324560e-02  -3.3482196528818786e-02  2.8730905016724480e-02  8.6271217208999509e-02  1.4658768893630822e-01  2.0371382407233526e-01  2.5306329875874345e-01  3.1753282694900581e-01  3.7174108294182812e-01  4.3107415942675509e-01  4.8806397086126668e-01  5.3811761660225843e-01  5.9089197450958786e-01  6.4555063286174696e-01  6.9765044054406988e-01  7.5036405892281000e-01  7.9977637970354643e-01  8.4784732624058956e-01  8.9330704073453215e-01  9.3896403470094669e-01  9.7871975199570171e-01  1.0157147306674537e+00  1.0549164254432541e+00  1.0899127174829710e+00  1.1267468632352944e+00  1.1541219170379324e+00  1.1841690048488085e+00  1.2182726711948613e+00  1.2399579382022892e+00  1.2604083097283976e+00  1.2771451862646299e+00  1.2952027673208675e+00  1.3100831903489374e+00  1.3226341290108721e+00  1.3360704914305546e+00  1.3381442645534063e+00  1.3371887104377411e+00  1.3358823668054598e+00  1.3361920522074375e+00  1.3287009747211087e+00  1.3209148966485929e+00  1.3099435277953695e+00  1.2934516693712175e+00  1.2802672828200039e+00  1.2602607003397444e+00  1.2443059714899640e+00  1.2177323968003009e+00  1.1848535312119453e+00  1.1521112086823289e+00  1.1176412980640491e+00  1.0814525314067405e+00  1.0404216370394583e+00  9.9824106511770339e-01  9.5307946410897915e-01  9.0632346721511747e-01  8.5176272238613759e-01  8.0259496844943967e-01  7.4419828489751905e-01  6.6435262176355225e-01  5.9220180486908858e-01  5.2878832018402422e-01  4.6429155844297965e-01  3.9257337801427800e-01  3.2258832334848125e-01  2.5635291642691188e-01  1.8744380957325457e-01  1.0771297279827717e-01  3.4687141000073862e-02  -3.7774889517794903e-02  -1.1496912105694414e-01  -1.9637377405180889e-01  -2.6368610902439232e-01  -3.4032812882031704e-01  -4.2065132384750459e-01  -4.8909373335093242e-01  -5.7099074766252167e-01  -6.4896100565055492e-01  -7.1924059435877707e-01  -7.8471407534420123e-01  -8.6174873286647291e-01  -9.3011072598571776e-01  -9.9657204937562338e-01  -1.0592739221567740e+00  -1.1306807274972595e+00  -1.1948032384878120e+00  -1.2553769522171834e+00  -1.3050047054525284e+00  -1.3585425111381715e+00  -1.4072738916521317e+00  -1.4537579010702641e+00  -1.4908853626367260e+00  -1.5124019105896380e+00  -1.5458331001195764e+00  -1.5830680302043072e+00  -1.6112897236901453e+00  -1.6312720278254143e+00  -1.6462684761279751e+00  -1.6472357130078108e+00  -1.6541326161503485e+00  -1.6553004169030150e+00  -1.6439035949224845e+00  -1.6152128860709087e+00  -1.5685269646079099e+00  -1.5200315217377063e+00  -1.4747972500899658e+00  -1.4234807520763118e+00  -1.3673568726332048e+00  -1.3088212393271104e+00  -1.2641409085901238e+00  -1.2164802792192311e+00  -1.1716454277165738e+00  -1.1012397418458060e+00  -1.0421001717434022e+00  -9.8036018903087963e-01  -9.1310802296625038e-01  -8.6948157299362794e-01  -7.9090524687236852e-01  -7.0654576683512138e-01  -6.3787014218950533e-01  -5.5969006543469157e-01  -5.0212703957729488e-01  -4.1585530598950809e-01  -3.4084956023385876e-01  -2.6550369531816165e-01  -1.9244772710918664e-01  -1.2096038317713113e-01  -3.6562302720122147e-02  4.4957542264680121e-02  1.0587471083630644e-01  1.7931142473382800e-01  2.5768847408457402e-01  3.2649474005584811e-01  3.8848660348470182e-01  4.4740660126722770e-01  5.0351627361924611e-01  5.5910020933516769e-01  6.0983216886338698e-01  6.5708603433544654e-01  7.1705758750121606e-01  7.7204970073812706e-01  8.0799143381461203e-01  8.3885235395376812e-01  8.7871869004685577e-01  9.3086538713926570e-01  9.9174973160298741e-01  1.0420979251801188e+00  1.0939191496598260e+00  1.1421622510708287e+00  1.1957833770583184e+00  1.2484376890039697e+00  1.3012061522130351e+00  1.3387590661229054e+00  1.3754520667778307e+00  1.4123668528128801e+00  1.4570794438973524e+00  1.5019172134088614e+00  1.5242440979867240e+00  1.5647097782034547e+00  1.5794753383540239e+00  1.5760316266203844e+00  1.6120045710907192e+00  1.6245259339057156e+00  1.6300337560403866e+00  1.6212173111815305e+00  1.6071454276340476e+00  1.6125406502695718e+00  1.6128680089452270e+00  1.6122398961548181e+00  1.5941867387565856e+00  1.5805880669787968e+00  1.5540875756487951e+00  1.5016896618904034e+00  1.4667660690484543e+00  1.4370050378044774e+00  1.4091858659365537e+00  1.3489944895579922e+00  1.3073355057393032e+00  1.2504352504477212e+00  1.2026441311364828e+00  1.1376549861104537e+00  1.0800333703736980e+00  1.0257218078251409e+00  9.6415493945429498e-01  8.9653322172347727e-01  8.3495225867832479e-01  7.5889207651116564e-01  6.9184811062304818e-01  6.1782392288796617e-01  5.4693552016155056e-01  4.6685157535349742e-01  3.9301054666715901e-01  3.1471354812989871e-01  2.3958240048995449e-01  1.5990868837458647e-01  8.7787273170391061e-02  1.9820403772119060e-02  -5.4392328034508539e-02  -1.2829032005705857e-01  -2.0392178815433704e-01  -2.7374740148271715e-01  -3.4375605417328142e-01  -4.1296175349710335e-01  -4.7849701034008291e-01  -5.3474163556867205e-01  -6.0044152312520938e-01  -6.5926921239517700e-01  -7.1977362699323466e-01  -7.7244172757550689e-01  -8.2065101863729961e-01  -8.7189840076540881e-01  -9.1850971897250711e-01  -9.6014496744293754e-01  -1.0033699235460660e+00  -1.0407038646054407e+00  -1.0726904815290168e+00  -1.1014919941333010e+00  -1.1259175920157785e+00  -1.1483514015862968e+00  -1.1785505604299684e+00  -1.1981303025324155e+00  -1.2131094750754348e+00  -1.2272302017244519e+00  -1.2299608449168025e+00  -1.2461684073259398e+00  -1.2518539662167976e+00  -1.2515030641652434e+00  -1.2476508082525026e+00  -1.2377398028657260e+00  -1.2331499389588487e+00  -1.2196580438307336e+00  -1.2079687818977840e+00  -1.1858763465267728e+00  -1.1723433120016860e+00  -1.1507585073738094e+00  -1.1259319247027142e+00  -1.0929852081083953e+00  -1.0629193118287925e+00  -1.0288331145243870e+00  -9.9384376187330492e-01  -9.6209797470782099e-01  -9.2745915642859245e-01  -8.7865677072201565e-01  -8.3706013528120127e-01  -7.8913823671750727e-01  -7.4517222165134822e-01  -6.9416776076434106e-01  -9.0755990587510144e-04  -9.9731459142608100e-02  9.4619233000674235e-02  -1.8402062798751984e-01  1.9761892223064673e-01  -2.3954192879674660e-01  2.6823502182848546e-01  -2.7948945777158718e-01  3.3284505304830336e-01  -2.9723287059893455e-01  3.5728764236510480e-01  -2.7317744573852748e-01  3.5015398369026729e-01  -2.1707572747654241e-01  3.1514216918421378e-01  -1.4280763059048807e-01  2.6207233341299740e-01  -4.7424138885547723e-02  3.9280075706310494e-02  1.9229161043437695e-01  1.9591514563761483e-02  5.8624379762813414e-02  8.7211084977738915e-03  -2.9043702546553823e-01  1.7094538528865863e-01  -5.6715505950329294e-02  -4.7022720058935885e-01  7.3757887430414490e-02  -2.5289787183314438e-02  5.1764914468608980e-02  -5.9685443274014849e-01  1.1368901706811817e-01  3.8342254915875568e-01  3.9271964974964574e-02  -2.4409387191182436e-02  -6.4728550109015082e-01  5.4923230432553949e-01  2.2251976833749167e-02  1.9689704354504695e-01  6.9775284456074962e-02  -4.3021496486498140e-02  -2.4125883375548454e-01  1.3487089969604300e-02  -1.2915257867836981e-02  1.1170090471367083e-01  -6.2274803738044837e-01  6.6428837677831076e-01  -2.2779077914041247e-02  -9.0298885018210234e-02  1.4012331869261357e-01  -1.2553663020810277e-01  3.1720096583173096e-01  -3.3207273466747345e-02  4.9075201633558664e-03  2.8045886535407100e-01  4.3138949994528442e-02  -9.1449548743077341e-02  1.3339190350159683e-01  -1.3939038884463442e-01  6.8651833315947464e-01  -5.6300559999631028e-01  -4.1524047191523933e-01  -5.8673519037855504e-01  7.3993614410298758e-01  -6.8390484660551887e-01  -7.4489184489285831e-01  -1.7514193499073662e-02  -3.6740021184789882e-02  4.5710878898526308e-01  1.0822388701131527e-01  -1.9315733428722262e-01  5.2054704068761293e-01  -3.7491385687682499e-01  7.1087991214477375e-01  -1.3148421932147586e-01  8.1089232972683734e-01  5.8105163091158252e-01  -1.5292422917744228e-01  5.3096627133673920e-02  7.3679515471292589e-02  -5.5346432661745902e-02  -5.6168317101257057e-03  -5.0378057563689338e-01  -1.1595525847013807e-01  -6.6026456969290354e-02  -2.7644933043480546e-01  7.3016413967077332e-01  -1.8542122807911526e-01  -2.4176984127623261e-01  -7.7916597016071357e-02  -6.8393313757218832e-01  2.2983493437578842e-01  8.4219846250967489e-01  1.3656753789502377e-01  6.8560085795925707e-01  2.4347436316833778e-02  -8.4357678703060809e-02  2.9166935233068519e-01  -3.3615586563337171e-02  -2.9372107034402406e-01  -3.7356257929669706e-01  2.4770032288008764e-02  1.0794534844387153e-01  -2.7762884688504956e-02  3.3629685874212709e-02  -1.5026973447250194e-01  -7.0809548770609715e-02  -1.3901503969445317e-01  5.8370716550419122e-01  1.7193295366130654e-01  -3.0892917557665261e-01  -5.8297384253489834e-02  5.6787760701848405e-02  7.6727125027269738e-01  -3.0264513826658518e-01  1.0528179648101986e-02  -1.3570350150284885e-01  -1.8857249472753017e-02  1.9846732555512087e-01  7.4341934765206485e-01  2.4086789058107816e-01  -9.2886708552115435e-02  2.8708205443196088e-02  6.9234739577619012e-02  1.4302925068014874e-01  7.9150987546223905e-01  -4.6598568431007148e-01  3.7015543565936976e-02  3.8431754423800313e-02  -2.9741785827990042e-01  -5.5757057333092308e-01  -7.2465269878874056e-02  1.3373656594834840e-01  -4.7064781900767592e-02  -4.4726647283394483e-01  5.1579902320951876e-01  -2.4899451002875472e-01  -1.2163328956554423e-01  8.5188206636364017e-01  -2.8859001167384473e-02  -2.2543154448912298e-01  -2.0782883942841970e-01  3.7476439152485291e-01  2.1469716157408611e-01  -6.8440448260079156e-01  -7.5732475198688198e-01  1.7054157155917477e-02  2.2098302605654802e-01  -5.1514169128435691e-02  3.5454464577441608e-01  -2.3102017534616229e-02  2.2537057504587912e-01  4.6723529592259054e-02  3.4340077431998467e-01  -3.6489640806952175e-02  6.0900186569142036e-03  1.9236311281847146e-01  7.4256428855766013e-02  -2.4382686350342164e-01  -2.4009789549158569e-01  7.2072919544402356e-02  -4.9264300653837793e-02  4.1499043251028023e-01  -6.3743150593269474e-02  4.9838271503094933e-01  -2.7759003941840044e-01  -8.3112144886174422e-01  -9.0064956969704024e-01  6.9159023923756766e-02  5.2432556777966904e-02  2.9332600589041707e-01  -4.7399060799085824e-01  -2.4704252457713741e-01  -3.8387783720309203e-02  -5.4268867747533356e-01  4.5852799769611907e-01  2.3510124410393995e-01  -1.6191182853623998e-01  3.9509247117971508e-01  8.3513557712195419e-01  -2.4387196581046150e-01  -2.5729630454520375e-01  -2.0593700956534945e-02  -9.1710942083900993e-01  -9.0448170189727106e-01  2.0867007591395892e-01  -3.2466304521597483e-01  7.1172288170702469e-01  6.2727132831674615e-01  4.0370042145909391e-01  9.2295747943568907e-01  -3.0816548625946526e-02  2.3440821309991239e-01  4.7342118164534863e-01  -2.2939266685995841e-01  -1.9772439991435273e-01  -8.0432197385209472e-02  5.4998006382165787e-01  1.3151485998069087e-01  -9.8902371670024664e-02  2.8336867141061858e-02  -3.3244022088495501e-01  -8.5708887655928789e-01  -6.5683817958869295e-01  2.8430630044709754e-01  -5.0317543135885379e-01  5.6225843672483754e-02  4.3814095701891226e-01  -1.9272732917443366e-01  3.3136631703534175e-02  6.6229959899619106e-01  8.9124769156320005e-01  2.2012411166241946e-01  2.1315259511801604e-01  1.5274037046325637e-02  -1.4623123257730495e-02  3.0035602960360125e-01  -5.0224154568315416e-01  -9.0340113126439484e-02  9.5169262205069971e-01  -5.1994450226444300e-01  -2.1617717480522100e-01  -2.1612527611614449e-01  6.8340395987783159e-02  9.5737580711304129e-02  -1.4885940325522025e-02  1.7742480223689969e-01  -3.3738732580981236e-02  -5.0045724235253541e-01  1.8792910466451615e-01  -6.0159625052044977e-03  -8.2871178668973866e-01  -6.7513136223555958e-01  -1.6509458906633523e-01  -1.0337694808995762e-01  -4.4716912786381201e-02  -2.3452245859874075e-02  1.2642974978798149e-01  -1.0133711983648769e-01  -7.5143251058822647e-01  7.7113386508086368e-01  -4.0042495440229448e-01  -9.5653427792199575e-01  2.2252743852085038e-01  -4.1378253887166461e-01  2.7846656190690799e-01  6.1669376620291938e-01  -9.8815178146515026e-02  6.7442481209797206e-02  -1.9125860321478586e-01  9.8281025738427985e-01  -1.0861826399873922e-01  9.7936181631466268e-01  3.8743763816008532e-02  -2.4284538374003170e-01  2.1734053406635895e-01  6.4639344092306358e-02  -1.3979230015245536e-01  2.6316213119697596e-01  3.6447402533711681e-01  -1.5079435536444533e-01  -1.7852482040243697e-01  1.7100307996108391e-01  1.8155753533980085e-01  -8.6450562076598148e-01  2.4727918123946530e-01  1.0073353803530110e+00  2.0992312322704465e-01  5.5714419519329850e-01  -6.3145268161855017e-01  -7.2050024308318683e-01  5.9873222141137583e-01  5.9596892943568103e-01  1.8463384692046364e-01  1.2057272116239171e-01  -3.9919473268498831e-02  3.5860361197783693e-02  -2.6516061489477858e-02  3.1162147472517693e-01  -6.5513134076095034e-02  3.5437956722958144e-02  2.7122359341406410e-01  -3.3932723685140290e-02  4.4056703671025099e-01  -4.7842156724481921e-01  -3.0639426198969855e-01  -5.1072419498160415e-01  9.5952885747694339e-01  -8.0440265840381359e-02  4.0635148221549185e-02  5.8183788021805027e-01  2.2988416232529166e-01  -3.9862181466697583e-01  -1.4969730569006615e-01  1.0065691372672372e+00  2.9084692437141740e-01  1.8787362161344101e-01  9.9019656743171217e-02  -8.1877305059934236e-01  8.2099223167405611e-01  1.7615573350003