<?xml version="1.0"?>
<VTKFile type="UnstructuredGrid"  version="0.1"  >
<UnstructuredGrid>
<Piece  NumberOfPoints="2401" NumberOfCells="4608">
<Points>
<DataArray  type="Float64"  NumberOfComponents="3"  format="ascii">0 0 0  0.001070538380698371 0 0  0.004277569313095364 0 0  0.009607359798386061 0 0  0.01703708685546806 0 0  0.02653493525245065 0 0  0.03806023374436157 0 0  0.05156362923366253 0 0  0.06698729810778931 0 0  0.08426519384873815 0 0  0.1033233298543955 0 0  0.1240800962605269 0 0  0.1464466094067445 0 0  0.1703270924499866 0 0  0.1956192854956637 0 0  0.2222148834902257 0 0  0.2500000000000299 0 0  0.2788556548905322 0 0  0.308658283817491 0 0  0.339280267348458 0 0  0.3705904774487813 0 0  0.4024548389919803 0 0  0.4347369038900211 0 0  0.467298435384978 0 0  0.5000000000000517 0 0  0.5327015646151253 0 0  0.5652630961100813 0 0  0.5975451610081212 0 0  0.6294095225513188 0 0  0.6607197326516399 0 0  0.6913417161826045 0 0  0.7211443451095605 0 0  0.7500000000000597 0 0  0.7777851165098603 0 0  0.8043807145044185 0 0  0.829672907550091 0 0  0.8535533905933287 0 0  0.8759199037395413 0 0  0.8966766701456674 0 0  0.9157348061513193 0 0  0.9330127018922625 0 0  0.9484363707663832 0 0  0.961939766255678 0 0  0.9734650647475827 0 0  0.9829629131445586 0 0  0.9903926402016341 0 0  0.9957224306869181 0 0  0.9989294616193084 0 0  1 0 0  0 0.02083333333333333 0  0.001070538380698371 0.02083333333333333 0  0.004277569313095364 0.02083333333333333 0  0.009607359798386061 0.02083333333333333 0  0.01703708685546806 0.02083333333333333 0  0.02653493525245065 0.02083333333333333 0  0.03806023374436157 0.02083333333333333 0  0.05156362923366253 0.02083333333333333 0  0.06698729810778931 0.02083333333333333 0  0.08426519384873815 0.02083333333333333 0  0.1033233298543955 0.02083333333333333 0  0.1240800962605269 0.02083333333333333 0  0.1464466094067445 0.02083333333333333 0  0.1703270924499866 0.02083333333333333 0  0.1956192854956637 0.02083333333333333 0  0.2222148834902257 0.02083333333333333 0  0.2500000000000299 0.02083333333333333 0  0.2788556548905322 0.02083333333333333 0  0.308658283817491 0.02083333333333333 0  0.339280267348458 0.02083333333333333 0  0.3705904774487813 0.02083333333333333 0  0.4024548389919803 0.02083333333333333 0  0.4347369038900211 0.02083333333333333 0  0.467298435384978 0.02083333333333333 0  0.5000000000000517 0.02083333333333333 0  0.5327015646151253 0.02083333333333333 0  0.5652630961100813 0.02083333333333333 0  0.5975451610081212 0.02083333333333333 0  0.6294095225513188 0.02083333333333333 0  0.6607197326516399 0.02083333333333333 0  0.6913417161826045 0.02083333333333333 0  0.7211443451095605 0.02083333333333333 0  0.7500000000000597 0.02083333333333333 0  0.7777851165098603 0.02083333333333333 0  0.8043807145044185 0.02083333333333333 0  0.829672907550091 0.02083333333333333 0  0.8535533905933287 0.02083333333333333 0  0.8759199037395413 0.02083333333333333 0  0.8966766701456674 0.02083333333333333 0  0.9157348061513193 0.02083333333333333 0  0.9330127018922625 0.02083333333333333 0  0.9484363707663832 0.02083333333333333 0  0.961939766255678 0.02083333333333333 0  0.9734650647475827 0.02083333333333333 0  0.9829629131445586 0.02083333333333333 0  0.9903926402016341 0.02083333333333333 0  0.9957224306869181 0.02083333333333333 0  0.9989294616193084 0.02083333333333333 0  1 0.02083333333333333 0  0 0.04166666666666666 0  0.001070538380698371 0.04166666666666666 0  0.004277569313095364 0.04166666666666666 0  0.009607359798386061 0.04166666666666666 0  0.01703708685546806 0.04166666666666666 0  0.02653493525245065 0.04166666666666666 0  0.03806023374436157 0.04166666666666666 0  0.05156362923366253 0.04166666666666666 0  0.06698729810778931 0.04166666666666666 0  0.08426519384873815 0.04166666666666666 0  0.1033233298543955 0.04166666666666666 0  0.1240800962605269 0.04166666666666666 0  0.1464466094067445 0.04166666666666666 0  0.1703270924499866 0.04166666666666666 0  0.1956192854956637 0.04166666666666666 0  0.2222148834902257 0.04166666666666666 0  0.2500000000000299 0.04166666666666666 0  0.2788556548905322 0.04166666666666666 0  0.308658283817491 0.04166666666666666 0  0.339280267348458 0.04166666666666666 0  0.3705904774487813 0.04166666666666666 0  0.4024548389919803 0.04166666666666666 0  0.4347369038900211 0.04166666666666666 0  0.467298435384978 0.04166666666666666 0  0.5000000000000517 0.04166666666666666 0  0.5327015646151253 0.04166666666666666 0  0.5652630961100813 0.04166666666666666 0  0.5975451610081212 0.04166666666666666 0  0.6294095225513188 0.04166666666666666 0  0.6607197326516399 0.04166666666666666 0  0.6913417161826045 0.04166666666666666 0  0.7211443451095605 0.04166666666666666 0  0.7500000000000597 0.04166666666666666 0  0.7777851165098603 0.04166666666666666 0  0.8043807145044185 0.04166666666666666 0  0.829672907550091 0.04166666666666666 0  0.8535533905933287 0.04166666666666666 0  0.8759199037395413 0.04166666666666666 0  0.8966766701456674 0.04166666666666666 0  0.9157348061513193 0.04166666666666666 0  0.9330127018922625 0.04166666666666666 0  0.9484363707663832 0.04166666666666666 0  0.961939766255678 0.04166666666666666 0  0.9734650647475827 0.04166666666666666 0  0.9829629131445586 0.04166666666666666 0  0.9903926402016341 0.04166666666666666 0  0.9957224306869181 0.04166666666666666 0  0.9989294616193084 0.04166666666666666 0  1 0.04166666666666666 0  0 0.0625 0  0.001070538380698371 0.0625 0  0.004277569313095364 0.0625 0  0.009607359798386061 0.0625 0  0.01703708685546806 0.0625 0  0.02653493525245065 0.0625 0  0.03806023374436157 0.0625 0  0.05156362923366253 0.0625 0  0.06698729810778931 0.0625 0  0.08426519384873815 0.0625 0  0.1033233298543955 0.0625 0  0.1240800962605269 0.0625 0  0.1464466094067445 0.0625 0  0.1703270924499866 0.0625 0  0.1956192854956637 0.0625 0  0.2222148834902257 0.0625 0  0.2500000000000299 0.0625 0  0.2788556548905322 0.0625 0  0.308658283817491 0.0625 0  0.339280267348458 0.0625 0  0.3705904774487813 0.0625 0  0.4024548389919803 0.0625 0  0.4347369038900211 0.0625 0  0.467298435384978 0.0625 0  0.5000000000000517 0.0625 0  0.5327015646151253 0.0625 0  0.5652630961100813 0.0625 0  0.5975451610081212 0.0625 0  0.6294095225513188 0.0625 0  0.6607197326516399 0.0625 0  0.6913417161826045 0.0625 0  0.7211443451095605 0.0625 0  0.7500000000000597 0.0625 0  0.7777851165098603 0.0625 0  0.8043807145044185 0.0625 0  0.829672907550091 0.0625 0  0.8535533905933287 0.0625 0  0.8759199037395413 0.0625 0  0.8966766701456674 0.0625 0  0.9157348061513193 0.0625 0  0.9330127018922625 0.0625 0  0.9484363707663832 0.0625 0  0.961939766255678 0.0625 0  0.9734650647475827 0.0625 0  0.9829629131445586 0.0625 0  0.9903926402016341 0.0625 0  0.9957224306869181 0.0625 0  0.9989294616193084 0.0625 0  1 0.0625 0  0 0.08333333333333333 0  0.001070538380698371 0.08333333333333333 0  0.004277569313095364 0.08333333333333333 0  0.009607359798386061 0.08333333333333333 0  0.01703708685546806 0.08333333333333333 0  0.02653493525245065 0.08333333333333333 0  0.03806023374436157 0.08333333333333333 0  0.05156362923366253 0.08333333333333333 0  0.06698729810778931 0.08333333333333333 0  0.08426519384873815 0.08333333333333333 0  0.1033233298543955 0.08333333333333333 0  0.1240800962605269 0.08333333333333333 0  0.1464466094067445 0.08333333333333333 0  0.1703270924499866 0.08333333333333333 0  0.1956192854956637 0.08333333333333333 0  0.2222148834902257 0.08333333333333333 0  0.2500000000000299 0.08333333333333333 0  0.2788556548905322 0.08333333333333333 0  0.308658283817491 0.08333333333333333 0  0.339280267348458 0.08333333333333333 0  0.3705904774487813 0.08333333333333333 0  0.4024548389919803 0.08333333333333333 0  0.4347369038900211 0.08333333333333333 0  0.467298435384978 0.08333333333333333 0  0.5000000000000517 0.08333333333333333 0  0.5327015646151253 0.08333333333333333 0  0.5652630961100813 0.08333333333333333 0  0.5975451610081212 0.08333333333333333 0  0.6294095225513188 0.08333333333333333 0  0.6607197326516399 0.08333333333333333 0  0.6913417161826045 0.08333333333333333 0  0.7211443451095605 0.08333333333333333 0  0.7500000000000597 0.08333333333333333 0  0.7777851165098603 0.08333333333333333 0  0.8043807145044185 0.08333333333333333 0  0.829672907550091 0.08333333333333333 0  0.8535533905933287 0.08333333333333333 0  0.8759199037395413 0.08333333333333333 0  0.8966766701456674 0.08333333333333333 0  0.9157348061513193 0.08333333333333333 0  0.9330127018922625 0.08333333333333333 0  0.9484363707663832 0.08333333333333333 0  0.961939766255678 0.08333333333333333 0  0.9734650647475827 0.08333333333333333 0  0.9829629131445586 0.08333333333333333 0  0.9903926402016341 0.08333333333333333 0  0.9957224306869181 0.08333333333333333 0  0.9989294616193084 0.08333333333333333 0  1 0.08333333333333333 0  0 0.1041666666666667 0  0.001070538380698371 0.1041666666666667 0  0.004277569313095364 0.1041666666666667 0  0.009607359798386061 0.1041666666666667 0  0.01703708685546806 0.1041666666666667 0  0.02653493525245065 0.1041666666666667 0  0.03806023374436157 0.1041666666666667 0  0.05156362923366253 0.1041666666666667 0  0.06698729810778931 0.1041666666666667 0  0.08426519384873815 0.1041666666666667 0  0.1033233298543955 0.1041666666666667 0  0.1240800962605269 0.1041666666666667 0  0.1464466094067445 0.1041666666666667 0  0.1703270924499866 0.1041666666666667 0  0.1956192854956637 0.1041666666666667 0  0.2222148834902257 0.1041666666666667 0  0.2500000000000299 0.1041666666666667 0  0.2788556548905322 0.1041666666666667 0  0.308658283817491 0.1041666666666667 0  0.339280267348458 0.1041666666666667 0  0.3705904774487813 0.1041666666666667 0  0.4024548389919803 0.1041666666666667 0  0.4347369038900211 0.1041666666666667 0  0.467298435384978 0.1041666666666667 0  0.5000000000000517 0.1041666666666667 0  0.5327015646151253 0.1041666666666667 0  0.5652630961100813 0.1041666666666667 0  0.5975451610081212 0.1041666666666667 0  0.62
[...]
<PointData  Scalars="f_1662871"> 
<DataArray  type="Float64"  Name="f_1662871"  format="ascii">1.0000000000000009e+00  9.9879309943430572e-01  9.9510761202511266e-01  9.8882431760086797e-01  9.7988378176482260e-01  9.6832713104968671e-01  9.5427489426299250e-01  9.3789595922763247e-01  9.1938824161385857e-01  8.9892989428856418e-01  8.7672320235865941e-01  8.5299377910978125e-01  8.2791683682385142e-01  8.0171272176052000e-01  7.7434188629692924e-01  7.4577065027551204e-01  7.1612284297214712e-01  6.8586832421068888e-01  6.5493225353780993e-01  6.2319122693624318e-01  5.9071961836346254e-01  5.5804965776759463e-01  5.2529398841741026e-01  4.9251009661389511e-01  4.5968129011560682e-01  4.2698389869549114e-01  3.9460695329192136e-01  3.6272932682728298e-01  3.3139040910227735e-01  3.0074279777797780e-01  2.7096994392624146e-01  2.4225139956832073e-01  2.1476400748491453e-01  1.8860654463250623e-01  1.6386665333306422e-01  1.4069854493190118e-01  1.1920303274526894e-01  9.9407292627287883e-02  8.1369015153788013e-02  6.5156609089415160e-02  5.0780607412879437e-02  3.8260937761920376e-02  2.7611198085091600e-02  1.8807897255423513e-02  1.1800055493174661e-02  6.5123316497114362e-03  2.8481999219211068e-03  7.0453456007221434e-04  -9.1647553321513127e-16  9.9999999999999989e-01  9.9867726178210892e-01  9.9471733336601686e-01  9.8813240424048476e-01  9.7893882768914664e-01  9.6718402121070990e-01  9.5296672347049438e-01  9.3642185623679941e-01  9.1772170738804659e-01  8.9707614735488472e-01  8.7463799856354518e-01  8.5062843854849146e-01  8.2529684555554927e-01  7.9890412617486461e-01  7.7135740992285140e-01  7.4260851698962971e-01  7.1275233508359370e-01  6.8229548857265843e-01  6.5119638425063231e-01  6.1929112298611866e-01  5.8663020270036970e-01  5.5379942043642449e-01  5.2105212516061106e-01  4.8834211356961948e-01  4.5556044670325252e-01  4.2291214409582567e-01  3.9062803827334469e-01  3.5888275172087397e-01  3.2770707948590289e-01  2.9725044315325783e-01  2.6773519989033001e-01  2.3934649345929343e-01  2.1226381856794027e-01  1.8656501190668762e-01  1.6229679502024844e-01  1.3962891896170113e-01  1.1862836014546074e-01  9.9303975473829506e-02  8.1704998701878556e-02  6.5853822327275352e-02  5.1748613918592541e-02  3.9397241159995960e-02  2.8792005146196040e-02  1.9904413588432805e-02  1.2695422188982343e-02  7.1251753932077468e-03  3.1626679229320299e-03  7.9010664320303885e-04  -6.9711556311331666e-16  1.0000000000000002e+00  9.9862246904387930e-01  9.9450580200340788e-01  9.8769301562487422e-01  9.7824695766020986e-01  9.6625088018500338e-01  9.5182075732351235e-01  9.3510591042595415e-01  9.1623516549570960e-01  8.9540265625316984e-01  8.7281145907658575e-01  8.4859484882702596e-01  8.2295152213187805e-01  7.9635106295345603e-01  7.6868125358533179e-01  7.3976650672323829e-01  7.0970962960668249e-01  6.7906185465897506e-01  6.4786460315644234e-01  6.1581891498159558e-01  5.8299822367273246e-01  5.5003593963928887e-01  5.1734320479456031e-01  4.8473795370161682e-01  4.5200149451430521e-01  4.1939868425854010e-01  3.8720052468423821e-01  3.5557488467227522e-01  3.2456376345660115e-01  2.9432049229295065e-01  2.6507352275223284e-01  2.3698988121485412e-01  2.1021419916240006e-01  1.8486939093014018e-01  1.6095441574878161e-01  1.3867491862317549e-01  1.1805765830339360e-01  9.9056402482968528e-02  8.1729537637954777e-02  6.6093235512507301e-02  5.2132573121095808e-02  3.9849302470469819e-02  2.9238601716968723e-02  2.0285102949010925e-02  1.2974816434358945e-02  7.2962401586620547e-03  3.2423317235821250e-03  8.1049111145351741e-04  -1.1209219209004886e-15  1.0000000000000000e+00  9.9857722761231871e-01  9.9433517838986896e-01  9.8734180374892877e-01  9.7768889134365522e-01  9.6548369224113761e-01  9.5085934079512224e-01  9.3397717562782456e-01  9.1499060605494853e-01  8.9402746879593609e-01  8.7130229755906863e-01  8.4694866876740937e-01  8.2107587256381520e-01  7.9418212736263072e-01  7.6636863570869029e-01  7.3732502661100485e-01  7.0713650936464156e-01  6.7630560559548469e-01  6.4501280449418597e-01  6.1287371000822266e-01  5.7998455921656356e-01  5.4692636559826946e-01  5.1427947834727217e-01  4.8175481258609704e-01  4.4905705689063830e-01  4.1649244470328772e-01  3.8436893212970186e-01  3.5285487386749986e-01  3.2200607019315369e-01  2.9197086959586160e-01  2.6297043047126095e-01  2.3515461969831197e-01  2.0862543215373830e-01  1.8352368634641203e-01  1.5988946630073156e-01  1.3790587379187805e-01  1.1756415856188794e-01  9.8782352731066891e-02  8.1625358121282923e-02  6.6115253162267920e-02  5.2243552736855527e-02  4.0007172712845832e-02  2.9396641982285792e-02  2.0416525090029471e-02  1.3068166042628396e-02  7.3517661000172393e-03  3.2677188060113017e-03  8.1694726095343589e-04  -8.3705049712196461e-16  1.0000000000000004e+00  9.9855552704787409e-01  9.9424691803230880e-01  9.8714405551697748e-01  9.7734775856731226e-01  9.6497740964445511e-01  9.5017638555747808e-01  9.3313021942276630e-01  9.1401418451204686e-01  8.9294857466678335e-01  8.7010517239745089e-01  8.4563849801257895e-01  8.1962299838892716e-01  7.9246851871237867e-01  7.6447772165018324e-01  7.3533891803638385e-01  7.0509262005415496e-01  6.7411907319585918e-01  6.4271456267783922e-01  6.1053661114344948e-01  5.7766537887755742e-01  5.4453008991718543e-01  5.1186393667489460e-01  4.7938064811464087e-01  4.4670477722609903e-01  4.1416903647922237e-01  3.8211078059907666e-01  3.5070321154404566e-01  3.2000673099754212e-01  2.9016186804192895e-01  2.6137780789249265e-01  2.3378980363840085e-01  2.0746712953756591e-01  1.8252409527233435e-01  1.5910410744093026e-01  1.3734313604057438e-01  1.1718921750548138e-01  9.8557713119542770e-02  8.1515750641989765e-02  6.6085290264410970e-02  5.2268170041294783e-02  4.0065684934827130e-02  2.9462104943088947e-02  2.0471333550638817e-02  1.3106265810763159e-02  7.3736919220817815e-03  3.2773964862037731e-03  8.1933134860743032e-04  -4.5190490416866388e-16  1.0000000000000002e+00  9.9854994794146479e-01  9.9421999410877049e-01  9.8707028767623695e-01  9.7719663190087191e-01  9.6472122736900856e-01  9.4979037582398140e-01  9.3259713325857096e-01  9.1334650347393731e-01  8.9216939831356301e-01  8.6921315230533414e-01  8.4465718534223855e-01  8.1858311032779951e-01  7.9127316075167564e-01  7.6315136183486365e-01  7.3397635621490598e-01  7.0367704685855581e-01  6.7257623885554751e-01  6.4109907483575379e-01  6.0895527493962454e-01  5.7612000294048360e-01  5.4288039557535173e-01  5.1009015165819893e-01  4.7760085463019930e-01  4.4493045508639584e-01  4.1241532690121652e-01  3.8041260807309740e-01  3.4910134530662273e-01  3.1854298157609867e-01  2.8886660165152916e-01  2.6026433907014068e-01  2.3286263612167060e-01  2.0671460094620234e-01  1.8188270212058133e-01  1.5861727434499207e-01  1.3701363224661009e-01  1.1697511282474647e-01  9.8441226663575798e-02  8.1480714374649432e-02  6.6108350217187611e-02  5.2324609304311639e-02  4.0131448848466936e-02  2.9523416303110728e-02  2.0518507372840496e-02  1.3137363326788526e-02  7.3910641656957281e-03  3.2849792652058555e-03  8.2121113782718334e-04  -9.7032804426219110e-16  1.0000000000000000e+00  9.9854096717760621e-01  9.9418701034123635e-01  9.8700265978917878e-01  9.7708498931735777e-01  9.6455643779010380e-01  9.4956394930036581e-01  9.3228650854650641e-01  9.1293776080737876e-01  8.9168185721207416e-01  8.6866310711733297e-01  8.4407479447061073e-01  8.1800635846647551e-01  7.9063754463525782e-01  7.6244897874060813e-01  7.3330774054904979e-01  7.0299565325141611e-01  6.7173082175616228e-01  6.4018804992419887e-01  6.0812808360733484e-01  5.7532266925877396e-01  5.4194611330740461e-01  5.0895547723259493e-01  4.7640488763008210e-01  4.4373099734813060e-01  4.1123827157248066e-01  3.7928517231683651e-01  3.4805204869137218e-01  3.1761291764644645e-01  2.8807510163749250e-01  2.5961054736129385e-01  2.3235059427953897e-01  2.0634180153386639e-01  1.8161298068009693e-01  1.5846546456507543e-01  1.3696050534724577e-01  1.1698933642869140e-01  9.8521751526277526e-02  8.1604652048291940e-02  6.6249501268475272e-02  5.2461247071511161e-02  4.0247870973700847e-02  2.9616547039576783e-02  2.0588013757860190e-02  1.3184403570677447e-02  7.4188631941591874e-03  3.2977818955922814e-03  8.2445157211024603e-04  -5.3201916833595252e-16  1.0000000000000009e+00  9.9854250466332539e-01  9.9419029893154898e-01  9.8700296933628673e-01  9.7707379936538685e-01  9.6452230248044002e-01  9.4949159525359283e-01  9.3216342548817588e-01  9.1276574092639184e-01  8.9147372587397622e-01  8.6846616849733149e-01  8.4391172489422861e-01  8.1790116787405309e-01  7.9051081683516611e-01  7.6227349177636805e-01  7.3317666783725088e-01  7.0287816356159383e-01  6.7152254853918680e-01  6.3990471401838034e-01  6.0791522552760335e-01  5.7511915777803935e-01  5.4164626273820493e-01  5.0845358241599636e-01  4.7580438756379706e-01  4.4313977207902755e-01  4.1069500922446522e-01  3.7879553510787783e-01  3.4761549684664145e-01  3.1726210243797665e-01  2.8781106593199601e-01  2.5941385218821605e-01  2.3224491803418987e-01  2.0634054288823253e-01  1.8171452285565207e-01  1.5866013918769273e-01  1.3720992745691843e-01  1.1726102144301492e-01  9.8816566100058456e-02  8.1894740938189797e-02  6.6505206639001169e-02  5.2667194179425197e-02  4.0403084059426060e-02  2.9730096412665913e-02  2.0668121464103274e-02  1.3238008047823607e-02  7.4506592337063096e-03  3.3126310518758004e-03  8.2830130865051436e-04  -8.0839035393214674e-16  9.9999999999999978e-01  9.9854994677968034e-01  9.9421815927458657e-01  9.8705899676741604e-01  9.7716017435887470e-01  9.6463551805357728e-01  9.4961730057564919e-01  9.3227573271419806e-01  9.1284172657887008e-01  8.9155949780639787e-01  8.6859209701550932e-01  8.4410644659844314e-01  8.1816083489610314e-01  7.9079275489829493e-01  7.6252435257388851e-01  7.3346206719978246e-01  7.0319804837990552e-01  6.7182722348970214e-01  6.4015785339767073e-01  6.0821455295921112e-01  5.7543447586255936e-01  5.4192204790244547e-01  5.0857517226175342e-01  4.7583905589286923e-01  4.4323896688324116e-01  4.1087227514345936e-01  3.7902311683538820e-01  3.4787235820307083e-01  3.1755369236452091e-01  2.8812724780116949e-01  2.5970082754438073e-01  2.3256462097788280e-01  2.0673246455994312e-01  1.8219343895954426e-01  1.5918216106632338e-01  1.3773306682168551e-01  1.1776529291991643e-01  9.9266882826942654e-02  8.2271409599689871e-02  6.6805397328637064e-02  5.2896383138691577e-02  4.0570172071629225e-02  2.9845375337484829e-02  2.0739629347458294e-02  1.3276891828203064e-02  7.4695247211590031e-03  3.3201762349151145e-03  8.3006709431225091e-04  -8.0835481078034262e-16  9.9999999999999911e-01  9.9855329991517927e-01  9.9423663323970146e-01  9.8711420288708140e-01  9.7727900015700431e-01  9.6484190910766754e-01  9.4992821333211785e-01  9.3267790359351466e-01  9.1327649330134186e-01  8.9198678204166126e-01  8.6905925642825665e-01  8.4461726266894588e-01  8.1873043860995365e-01  7.9141254827292873e-01  7.6314829333188772e-01  7.3411628267534823e-01  7.0390401612997067e-01  6.7257084964296632e-01  6.4089051309205780e-01  6.0898093730944203e-01  5.7623615010870000e-01  5.4273897553213724e-01  5.0931129816227716e-01  4.7652366641152683e-01  4.4402227786237614e-01  4.1172953144494590e-01  3.7990094577444761e-01  3.4874974480363363e-01  3.1842354502999470e-01  2.8898482025019850e-01  2.6049474061942390e-01  2.3333957069197006e-01  2.0754774278362542e-01  1.8304705040237940e-01  1.6003539074449252e-01  1.3852948429587902e-01  1.1851444550337834e-01  9.9968116101247062e-02  8.2886634960024033e-02  6.7313076589083393e-02  5.3293672456040428e-02  4.0866128668429216e-02  3.0057963146551615e-02  2.0886450321520166e-02  1.3367529997580889e-02  7.5162215307726212e-03  3.3391231870266128e-03  8.3462803230514664e-04  -6.3291171559800079e-16  1.0000000000000009e+00  9.9857973088604390e-01  9.9433385231013627e-01  9.8730986265283449e-01  9.7758762085792084e-01  9.6527216630611978e-01  9.5048240574953746e-01  9.3335012970768072e-01  9.1404279961282298e-01  8.9278007250364866e-01  8.6984729547336959e-01  8.4544065893639297e-01  8.1959811927446613e-01  7.9234499859005714e-01  7.6411572362966862e-01  7.3511815225853794e-01  7.0497291433401099e-01  6.7371727417790328e-01  6.4206754665294286e-01  6.1019259964266592e-01  5.7750530882232398e-01  5.4406808319462274e-01  5.1063238864969940e-01  4.7780625331217397e-01  4.4538494496082814e-01  4.1312245021041333e-01  3.8128746506206868e-01  3.5011831543466970e-01  3.1975909725419205e-01  2.9028274524742065e-01  2.6175683710926223e-01  2.3456291225379450e-01  2.0877625810520103e-01  1.8428141937707301e-01  1.6123088547115080e-01  1.3965306695045879e-01  1.1953054190524671e-01  1.0087223824006084e-01  8.3680539296401332e-02  6.7986331830932889e-02  5.3840741252224315e-02  4.1291522858517782e-02  3.0373283507741110e-02  2.1108923216289006e-02  1.3514074468007153e-02  7.6006843173100315e-03  3.3767258885699612e-03  8.4395165791879649e-04  1.4528125311860294e-16  9.9999999999999967e-01  9.9860869234122107e-01  9.9444532988083079e-01  9.8754414856373818e-01  9.7796863389254829e-01  9.6581079772149003e-01  9.5118249407784505e-01  9.3420798537414029e-01  9.1503452061534585e-01  8.9387326730551731e-01  8.7096992693017694e-01  8.4655038466907639e-01  8.2074618149110834e-01  7.9357516022825803e-01  7.6540469769050234e-01  7.3645205362056609e-01  7.0638925780610795e-01  6.7524242525752654e-01  6.4365986408850995e-01  6.1182994188983064e-01  5.7922125923239531e-01  5.4588114600245097e-01  5.1249306919528226e-01  4.7961563926087714e-01  4.4721165052549938e-01  4.1495582483353582e-01  3.8310678906791151e-01  3.5190843475705275e-01  3.2149627108818885e-01  2.9196168601621686e-01  2.6342037513943489e-01  2.3618533555752369e-01  2.1036248509592478e-01  1.8584902721666810e-01  1.6272742946157653e-01  1.4103120849191941e-01  1.2075388459092948e-01  1.0191743483700395e-01  8.4553006237921932e-02  6.8700649555468576e-02  5.4410958643760325e-02  4.1733857644943854e-02  3.0705203806673444e-02  2.1347142069453959e-02  1.3673767716989152e-02  7.6957230910139488e-03  3.4212748911522208e-03  8.5539314665059876e-04  -7.4387156517326276e-16  9.9999999999999989e-01  9.9862641674655528e-01  9.9451910759987394e-01  9.8771722868700706e-01  9.7828377955295343e-01  9.6630183151859217e-01  9.5187064006300914e-01  9.3510516406856081e-01  9.1614130060371091e-01  8.9515447610797771e-01  8.7236362053610195e-01  8.4797427981847007e-01  8.2217264295115722e-01  7.9509054214646147e-01  7.6699759405067602e-01  7.3810154064782862e-01  7.0813723542563001e-01  6.7712474866093508e-01  6.4563906689410744e-01  6.1386931455800720e-01  5.8135693342767070e-01  5.4814500637466212e-01  5.1486020575957125e-01  4.8192155153586735e-01  4.4944971520222465e-01  4.1718295688431578e-01  3.8531866607379733e-01  3.5408713998192004e-01  3.2361168605063068e-01  2.9400293683105405e-01  2.6543043014597045e-01  2.3815587981930286e-01  2.1223995832548742e-01  1.8765885470622323e-01  1.6441244264168303e-01  1.4254463878126047e-01  1.2207671139474388e-01  1.0304364515240133e-01  8.5490690946851966e-02  6.9467182033840669e-02  5.5023307020055125e-02  4.2207580154124333e-02  3.1057240933327977e-02  2.1595613252806099e-02  1.3836788509320906e-02  7.7903791536166299e-03  3.4646051673766971e-03  8.6642930943489529e-04  -1.3522552193072944e-15  9.9999999999999967e-01  9.9864894681765193e-01  9.9460740684744142e-01  9.8791013821767470e-01  9.7861443067316978e-01  9.6679859393062040e-01  9.5255878548335637e-01  9.3600517885758583e-01  9.1726398761986594e-01  8.9648867596713078e-01  8.7387017653833132e-01  8.4961224074701236e-01  8.2390312352342421e-01  7.9691272675325087e-01  7.6889156744300990e-01  7.4005227855440270e-01  7.1019966773888421e-01  6.7934245744409982e-01  6.4797710235029093e-01  6.1628361927937325e-01  5.8388129024435609e-01  5.5081524236813506e-01  5.1767334498774442e-01  4.8474334967216332e-01  4.5209262971770370e-01  4.1978302879016188e-01  3.8790246438478854e-01  3.5663866858665100e-01  3.2609034187605401e-01  2.9641397224061389e-01  2.6777515656609496e-01  2.4043909889600898e-01  2.1441861789879896e-01  1.8972121587383375e-01  1.6634880990467840e-01  1.4429488758922468e-01  1.2360259245374981e-01  1.0433420372617043e-01  8.6552775384716382e-02  7.0319838451865332e-02  5.5691899404625378e-02  4.2714239572895607e-02  3.1424198730915752e-02  2.1845700015443829e-02  1.3993595817863552e-02  7.8767093276604361e-03  3.5022515231976324e-03  8.7574670996146511e-04  -1.2949664488242727e-15  1.0000000000000004e+00  9.9867784162390882e-01  9.9471946410329981e-01  9.8815065545257375e-01  9.7901838551441334e-01  9.6739301127724098e-01  9.5336426272892083e-01  9.3703816705594112e-01  9.1853632328565638e-01  8.9800093045690843e-01  8.7560272439246090e-01  8.5153296418812063e-01  8.2597857881858749e-01  7.9911315119962212e-01  7.7113305206313210e-01  7.4230618470742948e-01  7.1256207940924932e-01  6.8187398723349868e-01  6.5064627241970829e-01  6.1904415927548950e-01  5.8676286867986371e-01  5.5385113541970676e-01  5.2085046025219595e-01  4.8800380525168724e-01  4.5522301087810835e-01  4.2276662168947393e-01  3.9086412911968649e-01  3.5956590339246414e-01  3.2893158118986576e-01  2.9918090089805394e-01  2.7047378458816335e-01  2.4304367790752496e-01  2.1691056397895592e-01  1.9205148562832686e-01  1.6848570228215864e-01  1.4622562833406497e-01  1.2530107581854374e-01  1.0578656955262199e-01  8.7760352778465042e-02  7.1295482048113312e-02  5.6455311021894411e-02  4.3285842179931526e-02  3.1825104780493670e-02  2.2104018676043270e-02  1.4144372128062896e-02  7.9553239448754472e-03  3.5354113470033471e-03  8.8376583939821013e-04  -8.2984560319926156e-16  9.9999999999999922e-01  9.9870467353621772e-01  9.9482604599556768e-01  9.8838720439834582e-01  9.7943011878261621e-01  9.6801795315407801e-01  9.5423071917990643e-01  9.3816295332794142e-01  9.1992698586454968e-01  8.9965707878714696e-01  8.7751284010944464e-01  8.5367305000979266e-01  8.2831731770191441e-01  8.0161490353201281e-01  7.7373342698155556e-01  7.4490141025875989e-01  7.1522160002018231e-01  6.8470063563845740e-01  6.5362004086691494e-01  6.2212231496019643e-01  5.8997133320232542e-01  5.5721775161213782e-01  5.2434182374963678e-01  4.9157281381702767e-01  4.5878407939941535e-01  4.2618183117154013e-01  3.9420156344058915e-01  3.6287258052311655e-01  3.3215095342276690e-01  3.0230078669404031e-01  2.7350045511227900e-01  2.4594354824846204e-01  2.1966425720450999e-01  1.9460667184737598e-01  1.7079533243205505e-01  1.4827650074185528e-01  1.2709463216787542e-01  1.0732262625885322e-01  8.9044267844271066e-02  7.2339691816949422e-02  5.7282147498503480e-02  4.3924975074359877e-02  3.2304666232163742e-02  2.2446925882690500e-02  1.4368209307041298e-02  8.0805902942798734e-03  3.5901926463687010e-03  8.9733090775364938e-04  -5.5777344776368116e-16  1.0000000000000002e+00  9.9872699065995552e-01  9.9491632077366676e-01  9.8859314162388146e-01  9.7980020701119686e-01  9.6859739182431404e-01  9.5505653105666566e-01  9.3925874326513192e-01  9.2130425898614199e-01  9.0131850316940687e-01  8.7945082200753311e-01  8.5586925527065338e-01  8.3074787748782142e-01  8.0425395652454956e-01  7.7654537517619049e-01  7.4779210661410378e-01  7.1817853158697686e-01  6.8781450663075983e-01  6.5687734520045449e-01  6.2549190053160675e-01  5.9347895896324110e-01  5.6088501701926852e-01  5.2811809074357707e-01  4.9540421670722756e-01  4.6263250138928275e-01  4.2997046666030181e-01  3.9787994629799062e-01  3.6649438316472138e-01  3.3569147758648216e-01  3.0573385394072777e-01  2.7681660357346893e-01  2.4909871074794637e-01  2.2261886868864400e-01  1.9733145320928169e-01  1.7325626694370677e-01  1.5045452008786095e-01  1.2898952512675074e-01  1.0894302551584492e-01  9.0405738608835204e-02  7.3458370094259484e-02  5.8174712275098892e-02  4.4614205021979034e-02  3.2817202776532280e-02  2.2809292437020040e-02  1.4606229227632052