<?xml version="1.0"?>
<VTKFile type="UnstructuredGrid"  version="0.1"  >
<UnstructuredGrid>
<Piece  NumberOfPoints="2401" NumberOfCells="4608">
<Points>
<DataArray  type="Float64"  NumberOfComponents="3"  format="ascii">0 0 0  0.001070538380698371 0 0  0.004277569313095364 0 0  0.009607359798386061 0 0  0.01703708685546806 0 0  0.02653493525245065 0 0  0.03806023374436157 0 0  0.05156362923366253 0 0  0.06698729810778931 0 0  0.08426519384873815 0 0  0.1033233298543955 0 0  0.1240800962605269 0 0  0.1464466094067445 0 0  0.1703270924499866 0 0  0.1956192854956637 0 0  0.2222148834902257 0 0  0.2500000000000299 0 0  0.2788556548905322 0 0  0.308658283817491 0 0  0.339280267348458 0 0  0.3705904774487813 0 0  0.4024548389919803 0 0  0.4347369038900211 0 0  0.467298435384978 0 0  0.5000000000000517 0 0  0.5327015646151253 0 0  0.5652630961100813 0 0  0.5975451610081212 0 0  0.6294095225513188 0 0  0.6607197326516399 0 0  0.6913417161826045 0 0  0.7211443451095605 0 0  0.7500000000000597 0 0  0.7777851165098603 0 0  0.8043807145044185 0 0  0.829672907550091 0 0  0.8535533905933287 0 0  0.8759199037395413 0 0  0.8966766701456674 0 0  0.9157348061513193 0 0  0.9330127018922625 0 0  0.9484363707663832 0 0  0.961939766255678 0 0  0.9734650647475827 0 0  0.9829629131445586 0 0  0.9903926402016341 0 0  0.9957224306869181 0 0  0.9989294616193084 0 0  1 0 0  0 0.02083333333333333 0  0.001070538380698371 0.02083333333333333 0  0.004277569313095364 0.02083333333333333 0  0.009607359798386061 0.02083333333333333 0  0.01703708685546806 0.02083333333333333 0  0.02653493525245065 0.02083333333333333 0  0.03806023374436157 0.02083333333333333 0  0.05156362923366253 0.02083333333333333 0  0.06698729810778931 0.02083333333333333 0  0.08426519384873815 0.02083333333333333 0  0.1033233298543955 0.02083333333333333 0  0.1240800962605269 0.02083333333333333 0  0.1464466094067445 0.02083333333333333 0  0.1703270924499866 0.02083333333333333 0  0.1956192854956637 0.02083333333333333 0  0.2222148834902257 0.02083333333333333 0  0.2500000000000299 0.02083333333333333 0  0.2788556548905322 0.02083333333333333 0  0.308658283817491 0.02083333333333333 0  0.339280267348458 0.02083333333333333 0  0.3705904774487813 0.02083333333333333 0  0.4024548389919803 0.02083333333333333 0  0.4347369038900211 0.02083333333333333 0  0.467298435384978 0.02083333333333333 0  0.5000000000000517 0.02083333333333333 0  0.5327015646151253 0.02083333333333333 0  0.5652630961100813 0.02083333333333333 0  0.5975451610081212 0.02083333333333333 0  0.6294095225513188 0.02083333333333333 0  0.6607197326516399 0.02083333333333333 0  0.6913417161826045 0.02083333333333333 0  0.7211443451095605 0.02083333333333333 0  0.7500000000000597 0.02083333333333333 0  0.7777851165098603 0.02083333333333333 0  0.8043807145044185 0.02083333333333333 0  0.829672907550091 0.02083333333333333 0  0.8535533905933287 0.02083333333333333 0  0.8759199037395413 0.02083333333333333 0  0.8966766701456674 0.02083333333333333 0  0.9157348061513193 0.02083333333333333 0  0.9330127018922625 0.02083333333333333 0  0.9484363707663832 0.02083333333333333 0  0.961939766255678 0.02083333333333333 0  0.9734650647475827 0.02083333333333333 0  0.9829629131445586 0.02083333333333333 0  0.9903926402016341 0.02083333333333333 0  0.9957224306869181 0.02083333333333333 0  0.9989294616193084 0.02083333333333333 0  1 0.02083333333333333 0  0 0.04166666666666666 0  0.001070538380698371 0.04166666666666666 0  0.004277569313095364 0.04166666666666666 0  0.009607359798386061 0.04166666666666666 0  0.01703708685546806 0.04166666666666666 0  0.02653493525245065 0.04166666666666666 0  0.03806023374436157 0.04166666666666666 0  0.05156362923366253 0.04166666666666666 0  0.06698729810778931 0.04166666666666666 0  0.08426519384873815 0.04166666666666666 0  0.1033233298543955 0.04166666666666666 0  0.1240800962605269 0.04166666666666666 0  0.1464466094067445 0.04166666666666666 0  0.1703270924499866 0.04166666666666666 0  0.1956192854956637 0.04166666666666666 0  0.2222148834902257 0.04166666666666666 0  0.2500000000000299 0.04166666666666666 0  0.2788556548905322 0.04166666666666666 0  0.308658283817491 0.04166666666666666 0  0.339280267348458 0.04166666666666666 0  0.3705904774487813 0.04166666666666666 0  0.4024548389919803 0.04166666666666666 0  0.4347369038900211 0.04166666666666666 0  0.467298435384978 0.04166666666666666 0  0.5000000000000517 0.04166666666666666 0  0.5327015646151253 0.04166666666666666 0  0.5652630961100813 0.04166666666666666 0  0.5975451610081212 0.04166666666666666 0  0.6294095225513188 0.04166666666666666 0  0.6607197326516399 0.04166666666666666 0  0.6913417161826045 0.04166666666666666 0  0.7211443451095605 0.04166666666666666 0  0.7500000000000597 0.04166666666666666 0  0.7777851165098603 0.04166666666666666 0  0.8043807145044185 0.04166666666666666 0  0.829672907550091 0.04166666666666666 0  0.8535533905933287 0.04166666666666666 0  0.8759199037395413 0.04166666666666666 0  0.8966766701456674 0.04166666666666666 0  0.9157348061513193 0.04166666666666666 0  0.9330127018922625 0.04166666666666666 0  0.9484363707663832 0.04166666666666666 0  0.961939766255678 0.04166666666666666 0  0.9734650647475827 0.04166666666666666 0  0.9829629131445586 0.04166666666666666 0  0.9903926402016341 0.04166666666666666 0  0.9957224306869181 0.04166666666666666 0  0.9989294616193084 0.04166666666666666 0  1 0.04166666666666666 0  0 0.0625 0  0.001070538380698371 0.0625 0  0.004277569313095364 0.0625 0  0.009607359798386061 0.0625 0  0.01703708685546806 0.0625 0  0.02653493525245065 0.0625 0  0.03806023374436157 0.0625 0  0.05156362923366253 0.0625 0  0.06698729810778931 0.0625 0  0.08426519384873815 0.0625 0  0.1033233298543955 0.0625 0  0.1240800962605269 0.0625 0  0.1464466094067445 0.0625 0  0.1703270924499866 0.0625 0  0.1956192854956637 0.0625 0  0.2222148834902257 0.0625 0  0.2500000000000299 0.0625 0  0.2788556548905322 0.0625 0  0.308658283817491 0.0625 0  0.339280267348458 0.0625 0  0.3705904774487813 0.0625 0  0.4024548389919803 0.0625 0  0.4347369038900211 0.0625 0  0.467298435384978 0.0625 0  0.5000000000000517 0.0625 0  0.5327015646151253 0.0625 0  0.5652630961100813 0.0625 0  0.5975451610081212 0.0625 0  0.6294095225513188 0.0625 0  0.6607197326516399 0.0625 0  0.6913417161826045 0.0625 0  0.7211443451095605 0.0625 0  0.7500000000000597 0.0625 0  0.7777851165098603 0.0625 0  0.8043807145044185 0.0625 0  0.829672907550091 0.0625 0  0.8535533905933287 0.0625 0  0.8759199037395413 0.0625 0  0.8966766701456674 0.0625 0  0.9157348061513193 0.0625 0  0.9330127018922625 0.0625 0  0.9484363707663832 0.0625 0  0.961939766255678 0.0625 0  0.9734650647475827 0.0625 0  0.9829629131445586 0.0625 0  0.9903926402016341 0.0625 0  0.9957224306869181 0.0625 0  0.9989294616193084 0.0625 0  1 0.0625 0  0 0.08333333333333333 0  0.001070538380698371 0.08333333333333333 0  0.004277569313095364 0.08333333333333333 0  0.009607359798386061 0.08333333333333333 0  0.01703708685546806 0.08333333333333333 0  0.02653493525245065 0.08333333333333333 0  0.03806023374436157 0.08333333333333333 0  0.05156362923366253 0.08333333333333333 0  0.06698729810778931 0.08333333333333333 0  0.08426519384873815 0.08333333333333333 0  0.1033233298543955 0.08333333333333333 0  0.1240800962605269 0.08333333333333333 0  0.1464466094067445 0.08333333333333333 0  0.1703270924499866 0.08333333333333333 0  0.1956192854956637 0.08333333333333333 0  0.2222148834902257 0.08333333333333333 0  0.2500000000000299 0.08333333333333333 0  0.2788556548905322 0.08333333333333333 0  0.308658283817491 0.08333333333333333 0  0.339280267348458 0.08333333333333333 0  0.3705904774487813 0.08333333333333333 0  0.4024548389919803 0.08333333333333333 0  0.4347369038900211 0.08333333333333333 0  0.467298435384978 0.08333333333333333 0  0.5000000000000517 0.08333333333333333 0  0.5327015646151253 0.08333333333333333 0  0.5652630961100813 0.08333333333333333 0  0.5975451610081212 0.08333333333333333 0  0.6294095225513188 0.08333333333333333 0  0.6607197326516399 0.08333333333333333 0  0.6913417161826045 0.08333333333333333 0  0.7211443451095605 0.08333333333333333 0  0.7500000000000597 0.08333333333333333 0  0.7777851165098603 0.08333333333333333 0  0.8043807145044185 0.08333333333333333 0  0.829672907550091 0.08333333333333333 0  0.8535533905933287 0.08333333333333333 0  0.8759199037395413 0.08333333333333333 0  0.8966766701456674 0.08333333333333333 0  0.9157348061513193 0.08333333333333333 0  0.9330127018922625 0.08333333333333333 0  0.9484363707663832 0.08333333333333333 0  0.961939766255678 0.08333333333333333 0  0.9734650647475827 0.08333333333333333 0  0.9829629131445586 0.08333333333333333 0  0.9903926402016341 0.08333333333333333 0  0.9957224306869181 0.08333333333333333 0  0.9989294616193084 0.08333333333333333 0  1 0.08333333333333333 0  0 0.1041666666666667 0  0.001070538380698371 0.1041666666666667 0  0.004277569313095364 0.1041666666666667 0  0.009607359798386061 0.1041666666666667 0  0.01703708685546806 0.1041666666666667 0  0.02653493525245065 0.1041666666666667 0  0.03806023374436157 0.1041666666666667 0  0.05156362923366253 0.1041666666666667 0  0.06698729810778931 0.1041666666666667 0  0.08426519384873815 0.1041666666666667 0  0.1033233298543955 0.1041666666666667 0  0.1240800962605269 0.1041666666666667 0  0.1464466094067445 0.1041666666666667 0  0.1703270924499866 0.1041666666666667 0  0.1956192854956637 0.1041666666666667 0  0.2222148834902257 0.1041666666666667 0  0.2500000000000299 0.1041666666666667 0  0.2788556548905322 0.1041666666666667 0  0.308658283817491 0.1041666666666667 0  0.339280267348458 0.1041666666666667 0  0.3705904774487813 0.1041666666666667 0  0.4024548389919803 0.1041666666666667 0  0.4347369038900211 0.1041666666666667 0  0.467298435384978 0.1041666666666667 0  0.5000000000000517 0.1041666666666667 0  0.5327015646151253 0.1041666666666667 0  0.5652630961100813 0.1041666666666667 0  0.5975451610081212 0.1041666666666667 0  0.62
[...]
<PointData  Scalars="f_1641066"> 
<DataArray  type="Float64"  Name="f_1641066"  format="ascii">1.0000000000000013e+00  9.9936694421348138e-01  9.9747045543225010e-01  9.9431797476723294e-01  9.8992019864298153e-01  9.8428862733891143e-01  9.7743264365486415e-01  9.6935659037123745e-01  9.6005748743466579e-01  9.4952402728235019e-01  9.3773739921992227e-01  9.2467429450419703e-01  9.1031207056008834e-01  8.9463543374422672e-01  8.7764323516994402e-01  8.5935333028455518e-01  8.3980332332489471e-01  8.1904570095816065e-01  7.9713734206193732e-01  7.7412527144283216e-01  7.5003214906042726e-01  7.2484572379770973e-01  6.9851599926255126e-01  6.7096224805580540e-01  6.4208972165840206e-01  6.1181356163742795e-01  5.8008561866247965e-01  5.4691904895096188e-01  5.1240587022621531e-01  4.7672406777092136e-01  4.4013305804461555e-01  4.0295883903205915e-01  3.6557233536207556e-01  3.2836565458913697e-01  2.9173083331610611e-01  2.5604423873781357e-01  2.2165764430583543e-01  1.8889492470084751e-01  1.5805203885189409e-01  1.2939782417767243e-01  1.0317392908852899e-01  7.9593453906132455e-02  5.8838950204212870e-02  4.1060926383254634e-02  2.6377911023355842e-02  1.4878508806520313e-02  6.6250755190676077e-03  1.6580676710155143e-03  -2.7601266336929670e-16  9.9999999999999978e-01  9.9936862193369502e-01  9.9747714139277543e-01  9.9433292021818165e-01  9.8994637465969360e-01  9.8432836803158064e-01  9.7748690639674984e-01  9.6942352691225975e-01  9.6013025621407122e-01  9.4958826061317614e-01  9.3776921190728724e-01  9.2463971857120142e-01  9.1016835951944575e-01  8.9433408075014120e-01  8.7713405711961401e-01  8.5858877933816891e-01  8.3874230310982267e-01  8.1765647700128508e-01  7.9539949618663575e-01  7.7203093189640981e-01  7.4758685857397378e-01  7.2206926572337271e-01  6.9544330973924395e-01  6.6764425646388348e-01  6.3859366580072519e-01  6.0822211755087485e-01  5.7649416443365142e-01  5.4343061272712878e-01  5.0912379474538250e-01  4.7374306572375458e-01  4.3752995346875290e-01  4.0078466540948793e-01  3.6384740967669027e-01  3.2707872142327393e-01  2.9084250583567089e-01  2.5549402326938048e-01  2.2137311391798034e-01  1.8880129424968528e-01  1.5808051427273992e-01  1.2949153697036131e-01  1.0329086951257857e-01  7.9706472488115340e-02  5.8933480205649709e-02  4.1131546151511413e-02  2.6424963808218786e-02  1.4905529776228636e-02  6.6371917605205230e-03  1.6611040119956179e-03  -1.1416583987951753e-15  1.0000000000000011e+00  9.9937379402882320e-01  9.9749773206216841e-01  9.9437881816925144e-01  9.9002647705144997e-01  9.8444935344524120e-01  9.7765120856683962e-01  9.6962625530971747e-01  9.6035477773648759e-01  9.4980083019578176e-01  9.3791404846081250e-01  9.2463656503264058e-01  9.0991416274417136e-01  8.9370917500930558e-01  8.7601184441383650e-01  8.5684699680527132e-01  8.3627384588480447e-01  8.1437829326355371e-01  7.9125894646014361e-01  7.6700982810627649e-01  7.4170389372744006e-01  7.1538159326329864e-01  6.8804766504441184e-01  6.5967738339004711e-01  6.3023114777253231e-01  5.9967427269919416e-01  5.6799767270047152e-01  5.3523512363314207e-01  5.0147387522186115e-01  4.6685724495590070e-01  4.3157989269456126e-01  3.9587815667635501e-01  3.6001864445866116e-01  3.2428801758977105e-01  2.8898574758301504e-01  2.5442001967639138e-01  2.2090551544918752e-01  1.8876101697649456e-01  1.5830488916267932e-01  1.2984744678834167e-01  1.0368066149082483e-01  8.0067145994049113e-02  5.9231118893004316e-02  4.1353736299093599e-02  2.6573633679010333e-02  1.4991391414761877e-02  6.6759114327022747e-03  1.6708470072430890e-03  -7.3933836747935097e-16  9.9999999999999989e-01  9.9938282136167989e-01  9.9753346383244501e-01  9.9445775070999420e-01  9.9016268436576949e-01  9.8465246733312273e-01  9.7792340396826882e-01  9.6995823205322218e-01  9.6072076399138540e-01  9.5015284764314278e-01  9.3817639409564479e-01  9.2470249432304241e-01  9.0964702635010219e-01  8.9294927923570344e-01  8.7458857150992708e-01  8.5459414302780534e-01  8.3304542710863427e-01  8.1006238065986957e-01  7.8578810050507186e-01  7.6036786221472652e-01  7.3392954305019087e-01  7.0656993118732092e-01  6.7834979610463120e-01  6.4929825336403324e-01  6.1942458055397265e-01  5.8873392176615336e-01  5.5724273337517938e-01  5.2499048905632972e-01  4.9204580187953872e-01  4.5850716136905789e-01  4.2450022885883643e-01  3.9017449629001127e-01  3.5570181807113366e-01  3.2127802544769435e-01  2.8712705400799177e-01  2.5350544507683909e-01  2.2070429899612784e-01  1.8904603610910567e-01  1.5887459384639949e-01  1.3053962435445191e-01  1.0437731479043651e-01  8.0691975832182183e-02  5.9742581128104905e-02  4.1736781248013638e-02  2.6832188192831830e-02  1.5142346681592938e-02  6.7446888146269132e-03  1.6882832622315408e-03  -1.4898267510364108e-15  1.0000000000000000e+00  9.9939603783117881e-01  9.9758532445869219e-01  9.9457080913012585e-01  9.9035465189641292e-01  9.8493377580811503e-01  9.7829392265910242e-01  9.7040309730230767e-01  9.6120559084745727e-01  9.5061872503423106e-01  9.3853526613976834e-01  9.2483428040933291e-01  9.0940052614492062e-01  8.9214863344928441e-01  8.7304563425290693e-01  8.5212526805369282e-01  8.2948986576124739e-01  8.0529928086805569e-01  7.7974988605870155e-01  7.5304902510294391e-01  7.2539098536961655e-01  6.9693953938889963e-01  6.6781983464784611e-01  6.3811963255923621e-01  6.0789745622404889e-01  5.7719380693102329e-01  5.4604160317876538e-01  5.1447327904973161e-01  4.8252402903997027e-01  4.5023273137332592e-01  4.1764334980971407e-01  3.8480960419894844e-01  3.5180438178636408e-01  3.1873320996287280e-01  2.8574893762145737e-01  2.5306340359204293e-01  2.2095183662907242e-01  1.8974710868482567e-01  1.5982341740411299e-01  1.3157187850575028e-01  1.0537299582980010e-01  8.1572111756808466e-02  6.0462804592468389e-02  4.2280249061868384e-02  2.7203281374924494e-02  1.5361737517921316e-02  6.8457459966218149e-03  1.7140928123352713e-03  -9.6204185382846958e-16  1.0000000000000004e+00  9.9941369384423329e-01  9.9765397563841496e-01  9.9471832348984357e-01  9.9060053633076495e-01  9.8528666785632113e-01  9.7874891206100578e-01  9.7093846968457498e-01  9.6177906992740758e-01  9.5116367842832261e-01  9.3895744347388832e-01  9.2500998921997890e-01  9.0917776489406377e-01  8.9135291820208162e-01  8.7149144469944850e-01  8.4963237123695767e-01  8.2590214515277582e-01  8.0050294303721303e-01  7.7368828138630785e-01  7.4573243500728548e-01  7.1690095746753357e-01  6.8742816881122515e-01  6.5750460122327103e-01  6.2727415666188735e-01  5.9683817946754636e-01  5.6626249945577756e-01  5.3558396266494679e-01  5.0481470402873607e-01  4.7394468479216695e-01  4.4294490893848970e-01  4.1177447266438438e-01  3.8039382097959051e-01  3.4878448046304739e-01  3.1697282564512508e-01  2.8505311158177782e-01  2.5320396405536466e-01  2.2169323903140239e-01  1.9086856337237684e-01  1.6113436424034694e-01  1.3291982064789626e-01  1.0664471005468250e-01  8.2690528566639387e-02  6.1382014156263202e-02  4.2980480612388967e-02  2.7686950964704915e-02  1.5650876060210331e-02  6.9801299040951484e-03  1.7486144070382754e-03  -6.0053709288842419e-16  9.9999999999999911e-01  9.9943591602943327e-01  9.9773966079539311e-01  9.9489992767779800e-01  9.9089771708553487e-01  9.8570391032779592e-01  9.7927412828495142e-01  9.7154166173586654e-01  9.6241055001085118e-01  9.5175199529276633e-01  9.3940755317903046e-01  9.2520245555020775e-01  9.0897016091097993e-01  8.9058492302311021e-01  8.6999478065874047e-01  8.4724545999741663e-01  8.2248772301683071e-01  7.9596574376406504e-01  7.6798980006850848e-01  7.3890062154841185e-01  7.0903390710866165e-01  6.7869190315087558e-01  6.4812556481559380e-01  6.1752713826304406e-01  5.8703027621741077e-01  5.5671377726730920e-01  5.2660579109902883e-01  4.9668731870364519e-01  4.6689614352790287e-01  4.3713397814574784e-01  4.0727987529563003e-01  3.7721160163483158e-01  3.4683407314541670e-01  3.1611097081313572e-01  2.8509337990391048e-01  2.5393864739506472e-01  2.2291405988786714e-01  1.9238319259070277e-01  1.6277704008517707e-01  1.3455602944979406e-01  1.0817129875697085e-01  8.4033278734640907e-02  6.2492609887070415e-02  4.3834303463041034e-02  2.8282402338733897e-02  1.6009845791953355e-02  7.1480303753683411e-03  1.7919161074106530e-03  -9.4669648437549375e-16  1.0000000000000004e+00  9.9946267555439128e-01  9.9784211883642682e-01  9.9511450735628260e-01  9.9124303948804315e-01  9.8617863050157217e-01  9.7985720250857611e-01  9.7219363201201181e-01  9.6307456090321653e-01  9.5235402674960068e-01  9.3985614519092642e-01  9.2538870085770797e-01  9.0876907532155016e-01  8.8985955052463894e-01  8.6860423041922019e-01  8.4505715544515025e-01  8.1939268077472938e-01  7.9189441009472183e-01  7.6292551425615607e-01  7.3288828932397632e-01  7.0218257558179009e-01  6.7117107690242939e-01  6.4015590749855245e-01  6.0936659519472880e-01  5.7895679621700369e-01  5.4900592575524221e-01  5.1952275073184184e-01  4.9045003295642342e-01  4.6167152519890331e-01  4.3302401379135735e-01  4.0431701312565743e-01  3.7536103168742474e-01  3.4600251604910232e-01  3.1616057357969563e-01  2.8585849000271724e-01  2.5524281069038762e-01  2.2458472684977951e-01  1.9426236109500772e-01  1.6472724293752217e-01  1.3646230419945329e-01  1.0994062663605678e-01  8.5593250024842041e-02  6.3790876869903243e-02  4.4839833161469847e-02  2.8988553814535741e-02  1.6437950525965601e-02  7.3490650045513733e-03  1.8438867146213175e-03  -1.0064707935840645e-15  1.0000000000000000e+00  9.9949376946663748e-01  9.9796051846116907e-01  9.9536009886300703e-01  9.9163276363064812e-01  9.8670451824613814e-01  9.8048842907875555e-01  9.7288075039824062e-01  9.6375382628812400e-01  9.5295043688722014e-01  9.4028494763090165e-01  9.2555603936967756e-01  9.0857297331965592e-01  8.8919264821708599e-01  8.6735955058725922e-01  8.4313744996131434e-01  8.1672264975714493e-01  7.8843379286507920e-01  7.5868036664139493e-01  7.2791798876733649e-01  6.9660103887309832e-01  6.6514185729126007e-01  6.3388183310417401e-01  6.0307524038231530e-01  5.7288339130329147e-01  5.4337544339783128e-01  5.1453294757723245e-01  4.8625716535564589e-01  4.5838023272096140e-01  4.3068242210087976e-01  4.0291746248201393e-01  3.7484607551625332e-01  3.4627508658117001e-01  3.1709661781441462e-01  2.8732006472601462e-01  2.5708968766732632e-01  2.2668303992085237e-01  1.9648965827667414e-01  1.6697427672210555e-01  1.3863270298663324e-01  1.1195001666137325e-01  8.7369404120183625e-02  6.5276106335944162e-02  4.5996042682220246e-02  2.9804092827393599e-02  1.6933993838608621e-02  7.5825087421848786e-03  1.9043107871509666e-03  -4.9643583731639371e-16  9.9999999999999944e-01  9.9952881487759182e-01  9.9809343210903556e-01  9.9563382029809344e-01  9.9206243940985672e-01  9.8727567119036397e-01  9.8116069359450364e-01  9.7359502800857423e-01  9.6444006425230522e-01  9.5353376235826059e-01  9.4068920495212416e-01  9.2570511882854822e-01  9.0839119754043030e-01  8.8860581727080090e-01  8.6629810362680948e-01  8.4154255321579197e-01  8.1455490749414350e-01  7.8568304839177938e-01  7.5537426118268325e-01  7.2412694886272744e-01  6.9243812207423461e-01  6.6075702546995241e-01  6.2945131399395171e-01  5.9878741912431666e-01  5.6892308963258009e-01  5.3990855533666104e-01  5.1169327644212237e-01  4.8413697974909337e-01  4.5702554333839601e-01  4.3009331503575393e-01  4.0305309234199416e-01  3.7563324075572790e-01  3.4761880098142606e-01  3.1889085474261031e-01  2.8945694803425526e-01  2.5946584999603806e-01  2.2920260759907266e-01  1.9906419748294335e-01  1.6952082001186511e-01  1.4107146133516726e-01  1.1420348546787600e-01  8.9364305738296831e-02  6.6948959106936934e-02  4.7302019838618953e-02  3.0727354654537339e-02  1.7496419037065475e-02  7.8474347302710228e-03  1.9729173628591288e-03  -1.3142842688271663e-15  1.0000000000000011e+00  9.9956725801542967e-01  9.9823885603954920e-01  9.9593187120960636e-01  9.9252681436529400e-01  9.8788632771158991e-01  9.8186898559056413e-01  9.7433345935187698e-01  9.6513332275780972e-01  9.5410796701347367e-01  9.4107764515321679e-01  9.2585041797403278e-01  9.0824510547585002e-01  8.8812842002512171e-01  8.6545817207658315e-01  8.4032014790326481e-01  8.1294633342117006e-01  7.8370709208507183e-01  7.5307779050976986e-01  7.2158778849429572e-01  6.8976368919017794e-01  6.5807824674198356e-01  6.2691244358862441e-01  5.9653322506726547e-01  5.6708533585306664e-01  5.3859378026766902e-01  5.1097361574946010e-01  4.8404527075431109e-01  4.5755525896343829e-01  4.3120310180646454e-01  4.0467494608913879e-01  3.7768276522476951e-01  3.5000566436727149e-01  3.2152756673322941e-01  2.9226446527155930e-01  2.6237525338782980e-01  2.3215305183825297e-01  2.0199828314536003e-01  1.7237922741710177e-01  1.4378894789191751e-01  1.1670816025324139e-01  9.1581486518633209e-02  6.8809882612704015e-02  4.8756239244298588e-02  3.1756119509301385e-02  1.8123330541830865e-02  8.1427707210427018e-03  2.0494013918312204e-03  -1.2185773003787584e-15  1.0000000000000000e+00  9.9960839686621261e-01  9.9839428040265132e-01  9.9624961561217562e-01  9.9301982890001905e-01  9.8853062411089476e-01  9.8260977095051716e-01  9.7509693495201311e-01  9.6584048671202438e-01  9.5468673168170870e-01  9.4147081705777647e-01  9.2601889921810820e-01  9.0816728720437545e-01  8.8779764402803207e-01  8.6488025339799601e-01  8.3951243458809777e-01  8.1193882876421331e-01  7.8254505660624551e-01  7.5182435656803170e-01  7.2032481125738512e-01  6.8858943897463587e-01  6.5710143347209926e-01  6.2624309618774876e-01  5.9627179269963260e-01  5.6731184266283685e-01  5.3935890819429722e-01  5.1229326425962385e-01  4.8589954551836417e-01  4.5989208913537516e-01  4.3394589868510475e-01  4.0773301041615068e-01  3.8096262953165433e-01  3.5342131373763741e-01  3.2500760267431861e-01  2.9575482271215359e-01  2.6583702528272618e-01  2.3555615042949218e-01  2.0531276893633307e-01  1.7556684496484781e-01  1.4679752841004803e-01  1.1947106790288520e-01  9.4023269308496485e-02  7.0857840771366212e-02  5.0355936645587504e-02  3.2887362391062894e-02  1.8812419398278449e-02  8.4672860368534206e-03  2.1334234076090287e-03  -8.0695810013293899e-16  1.0000000000000004e+00  9.9965141595468943e-01  9.9855680043352879e-01  9.9658174389705823e-01  9.9353471307442154e-01  9.8920243984197043e-01  9.8338037776184295e-01  9.7588901370972747e-01  9.6657340747000942e-01  9.5529107311479911e-01  9.4189847132858551e-01  9.2624749872937739e-01  9.0819952517950109e-01  8.8765729182636621e-01  8.6460706755398875e-01  8.3915780097022186e-01  8.1156314185407941e-01  7.8221677278877999e-01  7.5161974256758002e-01  7.2032696363649840e-01  6.8888533193194967e-01  6.5777644909408672e-01  6.2737340011823073e-01  5.9791570844743536e-01  5.6950182702385954e-01  5.4209576533790205e-01  5.1554390213726875e-01  4.8959898562390713e-01  4.6394971901541054e-01  4.3825522430296909e-01  4.1218351485755911e-01  3.8545184972071839e-01  3.5786499230334234e-01  3.2934587505823393e-01  2.9995298041257912e-01  2.6988047984723490e-01  2.3944063153390116e-01  2.0903213846577975e-01  1.7910175533898753e-01  1.5010820675023975e-01  1.2249672956257610e-01  9.6689209016449396e-02  7.3089391560029679e-02  5.2096599404953495e-02  3.4116982916543810e-02  1.9560826697081642e-02  8.8195327352876707e-03  2.2245947979286384e-03  -1.1254777169824683e-15  9.9999999999999922e-01  9.9969542917697007e-01  9.9872326054117067e-01  9.9692249793566434e-01  9.9406417655297219e-01  9.8989535079910573e-01  9.8417847651698054e-01  9.7671473066079917e-01  9.6734695316147989e-01  9.5594671778129381e-01  9.4239650715165613e-01  9.2658001591520101e-01  9.0839004680517044e-01  8.8775581604998244e-01  8.6468277893037970e-01  8.3929162664384960e-01  8.1184164126623981e-01  7.8272785783797449e-01  7.5244977188886220e-01  7.2155816691336960e-01  6.9059248647627336e-01  6.6002220833333536e-01  6.3020241878300276e-01  6.0134841355079127e-01  5.7352911195665868e-01  5.4667594109786932e-01  5.2060295759421649e-01  4.9503469562038355e-01  4.6963951895986250e-01  4.4406713894960148e-01  4.1798884087896998e-01  3.9113778259703785e-01  3.6334503420837366e-01  3.3456582454422934e-01  3.0489080163182908e-01  2.7453949983028947e-01  2.4383716719038009e-01  2.1318033888488039e-01  1.8299954726319342e-01  1.5372830205724963e-01  1.2578561033126104e-01  9.9575114781258023e-02  7.5498079053890596e-02  5.3971575467525533e-02  3.5439545720028484e-02  2.0364980817945060e-02  9.1977642661145598e-03  2.3224557348870420e-03  -1.2221084786084286e-15  1.0000000000000000e+00  9.9973952718611259e-01  9.9889041440258686e-01  9.9726593558877019e-01  9.9460066786028933e-01  9.9060268538817808e-01  9.8500168988446446e-01  9.7757954233081490e-01  9.6817717076135068e-01  9.5668151859159067e-01  9.4300385597967740e-01  9.2706381973340346e-01  9.0879048700925957e-01  8.8814398277918538e-01  8.6515177234248186e-01  8.3994653325984592e-01  8.1279034204905709e-01  7.8407374085204651e-01  7.5428644324736938e-01  7.2396551758803174e-01  6.9363320916997639e-01  6.6373809313253351e-01  6.3461031079118302e-01  6.0643631569037970e-01  5.7925332595844548e-01  5.5296024600203741e-01  5.2734064233420330e-01  5.0209388338470673e-01  4.7687175065806381e-01  4.5131868461782659e-01  4.2511368844303599e-01  3.9801070401166272e-01  3.6987261152139628e-01  3.4069304359287966e-01  3.1060111994561146e-01  2.7984742711784166e-01  2.4877427926027681e-01  2.1777773225035477e-01  1.8727121525721221e-01  1.5766011080535366e-01  1.2933331447448401e-01  1.0267255987670457e-01  7.8074096466303686e-02  5.5971804989330576e-02  3.6848061248958536e-02  2.1220440338411896e-02  9.5998512725622483e-03  2.4264515586282552e-03  -7.5037998784526497e-16  1.0000000000000007e+00  9.9978282454525458e-01  9.9905508906938423e-01  9.9760620938409061e-01  9.9513667372467152e-01  9.9131766304553759e-01  9.8584734023492215e-01  9.7848846446414484e-01  9.6907967690007724e-01  9.5752310116513817e-01  9.4375955145161172e-01  9.2774665976824366e-01  9.0945285296300860e-01  8.8887242760406704e-01  8.6605720377654627e-01  8.4115226202297355e-01  8.1442035114653044e-01  7.8624281096784465e-01  7.5709279062687229e-01  7.2748572108312837e-01  6.9791870251180288e-01  6.6881247538449728e-01  6.4046707524454993e-01  6.1303708332960805e-01  5.8652706559264767e-01  5.6080413961757436e-01  5.3562320202145774e-01  5.1066071476004216e-01  4.8555406548359753e-01  4.5994431988091239e-01  4.3351994939006755e-01  4.0605775408834560e-01  3.7745541767224045e-01  3.4774929810913718e-01  3.1711255371499281e-01  2.8583293629827100e-01  2.5427534656993783e-01  2.2283914698919888e-01  1.9192205017835098e-01  1.6190037363887444e-01  1.3313036964080768e-01  1.0596878069063118e-01  8.0804182724474122e-02  5.8085680907807510e-02  3.8333832842490485e-02  2.2121768325146014e-02  1.0023209893007465e-02  2.5359121041893065e-03  -9.2386298083418692e-16  1.0000000000000000e+00  9.9982450341517515e-01  9.9921433712156349e-01  9.9793783442019646e-01  9.9566502712106131e-01  9.9203358854115908e-01  9.8671232524750396e-01  9.7944542416624025e-01  9.7006834228494254e-01  9.5849685237634163e-01  9.4470014223733767e-01  9.2867376767495191e-01  9.1042668141340433e-01  8.8998927490473834e-01  8.6743946125234372e-01  8.4293528027344655e-01  8.1673881930463199e-01  7.8921879434861442e-01  7.6082663630234149e-01  7.3205003844469174e-01  7.0335489319748312e-01  6.7512900187403946e-01  6.4763878944301523e-01  6.2100530260207876e-01  5.9520046765511903e-01  5.7006080413168181e-01  5.4531421908848321e-01  5.2061575003211547e-01  4.9558916928432761e-01  4.6987208843167472e-01  4.4316180382047932e-01  4.1525748097458237e-01  3.8609220352682661e-01  3.5574754879375120e-01  3.2444538344868340e-01  2.9251696960912305e-01  2.6035661723863129e-01  2.2837282913194767e-01  1.9695128509323157e-01  1.6644033390198690e-01  1.3716244485054369e-01  1.0944687724148157e-01  8.3671721897865647e-02  6.0299043546009401e-02  3.988638969322300