<?xml version="1.0"?>
<VTKFile type="UnstructuredGrid"  version="0.1"  >
<UnstructuredGrid>
<Piece  NumberOfPoints="2401" NumberOfCells="4608">
<Points>
<DataArray  type="Float64"  NumberOfComponents="3"  format="ascii">0 0 0  0.001070538380698371 0 0  0.004277569313095364 0 0  0.009607359798386061 0 0  0.01703708685546806 0 0  0.02653493525245065 0 0  0.03806023374436157 0 0  0.05156362923366253 0 0  0.06698729810778931 0 0  0.08426519384873815 0 0  0.1033233298543955 0 0  0.1240800962605269 0 0  0.1464466094067445 0 0  0.1703270924499866 0 0  0.1956192854956637 0 0  0.2222148834902257 0 0  0.2500000000000299 0 0  0.2788556548905322 0 0  0.308658283817491 0 0  0.339280267348458 0 0  0.3705904774487813 0 0  0.4024548389919803 0 0  0.4347369038900211 0 0  0.467298435384978 0 0  0.5000000000000517 0 0  0.5327015646151253 0 0  0.5652630961100813 0 0  0.5975451610081212 0 0  0.6294095225513188 0 0  0.6607197326516399 0 0  0.6913417161826045 0 0  0.7211443451095605 0 0  0.7500000000000597 0 0  0.7777851165098603 0 0  0.8043807145044185 0 0  0.829672907550091 0 0  0.8535533905933287 0 0  0.8759199037395413 0 0  0.8966766701456674 0 0  0.9157348061513193 0 0  0.9330127018922625 0 0  0.9484363707663832 0 0  0.961939766255678 0 0  0.9734650647475827 0 0  0.9829629131445586 0 0  0.9903926402016341 0 0  0.9957224306869181 0 0  0.9989294616193084 0 0  1 0 0  0 0.02083333333333333 0  0.001070538380698371 0.02083333333333333 0  0.004277569313095364 0.02083333333333333 0  0.009607359798386061 0.02083333333333333 0  0.01703708685546806 0.02083333333333333 0  0.02653493525245065 0.02083333333333333 0  0.03806023374436157 0.02083333333333333 0  0.05156362923366253 0.02083333333333333 0  0.06698729810778931 0.02083333333333333 0  0.08426519384873815 0.02083333333333333 0  0.1033233298543955 0.02083333333333333 0  0.1240800962605269 0.02083333333333333 0  0.1464466094067445 0.02083333333333333 0  0.1703270924499866 0.02083333333333333 0  0.1956192854956637 0.02083333333333333 0  0.2222148834902257 0.02083333333333333 0  0.2500000000000299 0.02083333333333333 0  0.2788556548905322 0.02083333333333333 0  0.308658283817491 0.02083333333333333 0  0.339280267348458 0.02083333333333333 0  0.3705904774487813 0.02083333333333333 0  0.4024548389919803 0.02083333333333333 0  0.4347369038900211 0.02083333333333333 0  0.467298435384978 0.02083333333333333 0  0.5000000000000517 0.02083333333333333 0  0.5327015646151253 0.02083333333333333 0  0.5652630961100813 0.02083333333333333 0  0.5975451610081212 0.02083333333333333 0  0.6294095225513188 0.02083333333333333 0  0.6607197326516399 0.02083333333333333 0  0.6913417161826045 0.02083333333333333 0  0.7211443451095605 0.02083333333333333 0  0.7500000000000597 0.02083333333333333 0  0.7777851165098603 0.02083333333333333 0  0.8043807145044185 0.02083333333333333 0  0.829672907550091 0.02083333333333333 0  0.8535533905933287 0.02083333333333333 0  0.8759199037395413 0.02083333333333333 0  0.8966766701456674 0.02083333333333333 0  0.9157348061513193 0.02083333333333333 0  0.9330127018922625 0.02083333333333333 0  0.9484363707663832 0.02083333333333333 0  0.961939766255678 0.02083333333333333 0  0.9734650647475827 0.02083333333333333 0  0.9829629131445586 0.02083333333333333 0  0.9903926402016341 0.02083333333333333 0  0.9957224306869181 0.02083333333333333 0  0.9989294616193084 0.02083333333333333 0  1 0.02083333333333333 0  0 0.04166666666666666 0  0.001070538380698371 0.04166666666666666 0  0.004277569313095364 0.04166666666666666 0  0.009607359798386061 0.04166666666666666 0  0.01703708685546806 0.04166666666666666 0  0.02653493525245065 0.04166666666666666 0  0.03806023374436157 0.04166666666666666 0  0.05156362923366253 0.04166666666666666 0  0.06698729810778931 0.04166666666666666 0  0.08426519384873815 0.04166666666666666 0  0.1033233298543955 0.04166666666666666 0  0.1240800962605269 0.04166666666666666 0  0.1464466094067445 0.04166666666666666 0  0.1703270924499866 0.04166666666666666 0  0.1956192854956637 0.04166666666666666 0  0.2222148834902257 0.04166666666666666 0  0.2500000000000299 0.04166666666666666 0  0.2788556548905322 0.04166666666666666 0  0.308658283817491 0.04166666666666666 0  0.339280267348458 0.04166666666666666 0  0.3705904774487813 0.04166666666666666 0  0.4024548389919803 0.04166666666666666 0  0.4347369038900211 0.04166666666666666 0  0.467298435384978 0.04166666666666666 0  0.5000000000000517 0.04166666666666666 0  0.5327015646151253 0.04166666666666666 0  0.5652630961100813 0.04166666666666666 0  0.5975451610081212 0.04166666666666666 0  0.6294095225513188 0.04166666666666666 0  0.6607197326516399 0.04166666666666666 0  0.6913417161826045 0.04166666666666666 0  0.7211443451095605 0.04166666666666666 0  0.7500000000000597 0.04166666666666666 0  0.7777851165098603 0.04166666666666666 0  0.8043807145044185 0.04166666666666666 0  0.829672907550091 0.04166666666666666 0  0.8535533905933287 0.04166666666666666 0  0.8759199037395413 0.04166666666666666 0  0.8966766701456674 0.04166666666666666 0  0.9157348061513193 0.04166666666666666 0  0.9330127018922625 0.04166666666666666 0  0.9484363707663832 0.04166666666666666 0  0.961939766255678 0.04166666666666666 0  0.9734650647475827 0.04166666666666666 0  0.9829629131445586 0.04166666666666666 0  0.9903926402016341 0.04166666666666666 0  0.9957224306869181 0.04166666666666666 0  0.9989294616193084 0.04166666666666666 0  1 0.04166666666666666 0  0 0.0625 0  0.001070538380698371 0.0625 0  0.004277569313095364 0.0625 0  0.009607359798386061 0.0625 0  0.01703708685546806 0.0625 0  0.02653493525245065 0.0625 0  0.03806023374436157 0.0625 0  0.05156362923366253 0.0625 0  0.06698729810778931 0.0625 0  0.08426519384873815 0.0625 0  0.1033233298543955 0.0625 0  0.1240800962605269 0.0625 0  0.1464466094067445 0.0625 0  0.1703270924499866 0.0625 0  0.1956192854956637 0.0625 0  0.2222148834902257 0.0625 0  0.2500000000000299 0.0625 0  0.2788556548905322 0.0625 0  0.308658283817491 0.0625 0  0.339280267348458 0.0625 0  0.3705904774487813 0.0625 0  0.4024548389919803 0.0625 0  0.4347369038900211 0.0625 0  0.467298435384978 0.0625 0  0.5000000000000517 0.0625 0  0.5327015646151253 0.0625 0  0.5652630961100813 0.0625 0  0.5975451610081212 0.0625 0  0.6294095225513188 0.0625 0  0.6607197326516399 0.0625 0  0.6913417161826045 0.0625 0  0.7211443451095605 0.0625 0  0.7500000000000597 0.0625 0  0.7777851165098603 0.0625 0  0.8043807145044185 0.0625 0  0.829672907550091 0.0625 0  0.8535533905933287 0.0625 0  0.8759199037395413 0.0625 0  0.8966766701456674 0.0625 0  0.9157348061513193 0.0625 0  0.9330127018922625 0.0625 0  0.9484363707663832 0.0625 0  0.961939766255678 0.0625 0  0.9734650647475827 0.0625 0  0.9829629131445586 0.0625 0  0.9903926402016341 0.0625 0  0.9957224306869181 0.0625 0  0.9989294616193084 0.0625 0  1 0.0625 0  0 0.08333333333333333 0  0.001070538380698371 0.08333333333333333 0  0.004277569313095364 0.08333333333333333 0  0.009607359798386061 0.08333333333333333 0  0.01703708685546806 0.08333333333333333 0  0.02653493525245065 0.08333333333333333 0  0.03806023374436157 0.08333333333333333 0  0.05156362923366253 0.08333333333333333 0  0.06698729810778931 0.08333333333333333 0  0.08426519384873815 0.08333333333333333 0  0.1033233298543955 0.08333333333333333 0  0.1240800962605269 0.08333333333333333 0  0.1464466094067445 0.08333333333333333 0  0.1703270924499866 0.08333333333333333 0  0.1956192854956637 0.08333333333333333 0  0.2222148834902257 0.08333333333333333 0  0.2500000000000299 0.08333333333333333 0  0.2788556548905322 0.08333333333333333 0  0.308658283817491 0.08333333333333333 0  0.339280267348458 0.08333333333333333 0  0.3705904774487813 0.08333333333333333 0  0.4024548389919803 0.08333333333333333 0  0.4347369038900211 0.08333333333333333 0  0.467298435384978 0.08333333333333333 0  0.5000000000000517 0.08333333333333333 0  0.5327015646151253 0.08333333333333333 0  0.5652630961100813 0.08333333333333333 0  0.5975451610081212 0.08333333333333333 0  0.6294095225513188 0.08333333333333333 0  0.6607197326516399 0.08333333333333333 0  0.6913417161826045 0.08333333333333333 0  0.7211443451095605 0.08333333333333333 0  0.7500000000000597 0.08333333333333333 0  0.7777851165098603 0.08333333333333333 0  0.8043807145044185 0.08333333333333333 0  0.829672907550091 0.08333333333333333 0  0.8535533905933287 0.08333333333333333 0  0.8759199037395413 0.08333333333333333 0  0.8966766701456674 0.08333333333333333 0  0.9157348061513193 0.08333333333333333 0  0.9330127018922625 0.08333333333333333 0  0.9484363707663832 0.08333333333333333 0  0.961939766255678 0.08333333333333333 0  0.9734650647475827 0.08333333333333333 0  0.9829629131445586 0.08333333333333333 0  0.9903926402016341 0.08333333333333333 0  0.9957224306869181 0.08333333333333333 0  0.9989294616193084 0.08333333333333333 0  1 0.08333333333333333 0  0 0.1041666666666667 0  0.001070538380698371 0.1041666666666667 0  0.004277569313095364 0.1041666666666667 0  0.009607359798386061 0.1041666666666667 0  0.01703708685546806 0.1041666666666667 0  0.02653493525245065 0.1041666666666667 0  0.03806023374436157 0.1041666666666667 0  0.05156362923366253 0.1041666666666667 0  0.06698729810778931 0.1041666666666667 0  0.08426519384873815 0.1041666666666667 0  0.1033233298543955 0.1041666666666667 0  0.1240800962605269 0.1041666666666667 0  0.1464466094067445 0.1041666666666667 0  0.1703270924499866 0.1041666666666667 0  0.1956192854956637 0.1041666666666667 0  0.2222148834902257 0.1041666666666667 0  0.2500000000000299 0.1041666666666667 0  0.2788556548905322 0.1041666666666667 0  0.308658283817491 0.1041666666666667 0  0.339280267348458 0.1041666666666667 0  0.3705904774487813 0.1041666666666667 0  0.4024548389919803 0.1041666666666667 0  0.4347369038900211 0.1041666666666667 0  0.467298435384978 0.1041666666666667 0  0.5000000000000517 0.1041666666666667 0  0.5327015646151253 0.1041666666666667 0  0.5652630961100813 0.1041666666666667 0  0.5975451610081212 0.1041666666666667 0  0.62
[...]
<CellData  Scalars="f_1247091"> 
<DataArray  type="Float64"  Name="f_1247091"  format="ascii">6.5022322251079681e+00   4.9428028938879676e+00   9.8103357239525746e+00   6.0271436481645031e+00   1.5434182220614257e+01   8.9657879439970465e+00   2.0434950386847721e+01   1.2534077216295241e+01   2.5533521408367882e+01   1.7786168529241674e+01   3.8490021250146192e+01   3.4013634637580445e+01   3.9852596109329305e+01   2.8571165553772239e+01   3.8029119709661380e+01   2.9210233729211318e+01   4.3071200418396927e+01   2.6291123884723042e+01   4.1403415597174401e+01   2.3239890882605270e+01   3.8641379867227180e+01   2.4217793857178989e+01   5.2079722127960437e+01   3.1732298976549167e+01   6.2297212390789397e+01   4.6712289931040466e+01   5.8161259860663968e+01   4.4337825967061704e+01   6.0145179125769197e+01   3.1218260519954246e+01   5.4690800438168957e+01   3.6765732015959500e+01   8.4481312657256524e+01   5.9237170075006127e+01   7.8057020864991571e+01   7.7604848369914961e+01   4.9224117818923617e+01   2.9863647793315170e+01   5.2455168262788050e+01   3.2023275801798484e+01   6.2567605937743473e+01   4.1715346890540758e+01   8.0106653018939781e+01   6.5935248818822913e+01   7.3826762350288959e+01   7.1787391122929023e+01   7.5436592123816254e+01   6.1025189547796458e+01   6.3306992500006025e+01   5.6636670231607162e+01   9.3415960011536342e+01   8.8056295542610258e+01   5.9852402276821572e+01   6.6456672481279540e+01   4.9500481090911350e+01   5.0422420135462772e+01   3.8782740986758711e+01   4.1464583159321073e+01   5.1002427268069916e+01   5.1495711846054867e+01   3.0110673826131702e+01   2.8639925899580081e+01   3.5330715067050022e+01   2.2026092247211718e+01   3.1605074921475286e+01   2.2883859201371678e+01   3.8891110175322098e+01   3.1938842395474694e+01   1.7468151812580054e+01   3.4168741445614437e+01   1.8189625460438624e+01   1.6754628873662369e+01   2.3104604482461198e+01   1.6056784761274741e+01   2.5445125307648652e+01   1.6135537556992997e+01   3.0130968724747746e+01   2.0760135651214270e+01   3.0682271485031329e+01   2.7256051724700082e+01   3.0079081467223208e+01   2.9825251549597759e+01   2.8426799001482820e+01   2.8865459321708336e+01   2.4474419215195052e+01   2.5246821989876889e+01   1.8401664171565653e+01   1.9054782638902186e+01   1.1617200140308777e+01   1.1993102275289308e+01   6.8338670362424150e+00   6.4433200251419906e+00   5.3349136959604166e+00   4.0238009512898447e+00   1.9021818196564517e+01   2.0941592126214417e+01   2.4491029420205273e+01   3.9359373819431035e+01   2.2290099409766480e+01   3.3723490458074281e+01   2.0075382702010881e+01   3.0521398992426910e+01   1.8061531105977295e+01   2.7026856653320564e+01   2.3769231099048209e+01   2.6653940622866070e+01   4.0406826625847508e+01   2.7514745598002353e+01   3.6063170047835229e+01   5.0156275770459551e+01   1.0411305158217267e+01   3.0133948876565171e+01   1.3879957855368323e+01   1.0978014514539678e+01   2.5486828626098614e+01   2.6464841997253682e+01   2.8664089727928737e+01   2.6067360044526101e+01   1.9611906158000323e+01   2.9806706539591538e+01   2.2028404781867916e+01   2.3068111806259886e+01   7.8788949633661387e+00   1.4357945283897429e+01   1.9731919411985594e+01   1.1544444359276564e+01   6.2493118582013693e+01   5.6032510048769097e+01   7.1968831204409668e+01   8.2806092330097727e+01   3.9501092192889736e+01   6.7315827743906354e+01   1.2969835007233645e+01   1.0683433438735635e+01   2.0758747652651696e+01   1.5695285369395554e+01   7.6871162302763196e+01   6.5342496429613291e+01   9.2568881841719602e+01   1.1392928780428306e+02   7.3173864219134103e+01   8.3893156130075909e+01   9.5545382975561537e+01   1.0754672772647739e+02   8.3586196633746411e+01   8.6589164357568052e+01   1.0709875399746245e+02   1.2691071374740413e+02   6.9224311475765433e+01   8.3839577809640772e+01   8.0454697192597379e+01   9.6275686557846996e+01   6.0076989983135036e+01   6.7516347431937490e+01   7.1524567898588558e+01   8.8342157500208344e+01   2.1603753453424275e+01   5.6253946708406545e+01   9.9772554088993175e+00   7.8338087698250041e+00   9.7547298991703428e+00   8.7293478645581963e+00   3.8481517201183109e+01   3.3610112808420070e+01   4.9683284372428439e+01   5.7863432303938943e+01   2.5851683784844159e+01   3.7520493966189733e+01   2.8387971551785533e+01   3.8507475879826515e+01   8.8481053970456180e+00   2.3671705866096932e+01   1.7552030620744400e+01   7.4110239223269110e+00   3.0169912823563749e+01   2.8513475874879191e+01   3.7177748524449783e+01   4.0472405122907617e+01   3.6698339637886477e+01   4.3670206499468676e+01   3.1024384692238627e+01   4.0141528767449486e+01   1.9797751948967111e+01   2.9102602741920965e+01   8.6036553182217883e+00   1.4611301046425689e+01   4.5356965334164938e+00   5.7361715028922138e+00   1.2135292575874615e+01   9.8975294486574992e+00   3.6384669339901961e+01   4.0238609340366594e+01   5.2297359159208035e+01   5.9419301311371306e+01   4.7650838461916486e+01   5.2945135782789258e+01   4.5119750192064522e+01   5.1421105528236176e+01   4.0075150673407201e+01   4.8427223529288014e+01   2.9361361776611869e+01   3.9265774324741528e+01   2.9330734088193456e+01   3.0977319850918335e+01   4.4730834746337756e+01   2.7599454030785314e+01   4.3603348790820881e+01   5.3075294474930359e+01   9.6572377229578201e+00   2.3575803390541129e+01   1.8648809148711457e+01   9.6903036660383002e+00   2.3984065364075931e+01   1.9033011051232357e+01   4.6909388135798444e+01   3.7704999571271770e+01   1.7704802364047804e+01   3.2813188699999117e+01   1.2228085719669467e+01   1.2141989066856343e+01   1.2031817511278835e+01   1.0133111938308183e+01   9.1542751611828493e+01   6.7449794729624315e+01   1.1275565566155370e+02   1.2573126990023160e+02   4.8103706231329987e+01   8.2409837735859711e+01   9.9320149937581199e+00   9.5172454526188215e+00   2.0910167506987044e+01   1.3972469704840879e+01   1.1359827194220807e+02   8.1135262083757823e+01   1.5058541686279818e+02   1.6246625783760757e+02   1.0149407306428837e+02   1.0923106167661122e+02   1.4321576168640581e+02   1.5051958250949886e+02   1.1171379582020818e+02   1.1060355732768103e+02   1.5026242346377001e+02   1.6341321994835843e+02   9.5210494406584644e+01   1.0649282845099519e+02   1.2199916320204296e+02   1.3344792037903440e+02   8.4650441047930229e+01   8.8148086097328473e+01   1.0900771106377907e+02   1.2158437235459283e+02   4.6391484949009367e+01   7.8877255894880392e+01   8.8776401269644776e+00   6.4799110975434973e+00   9.7829378345894309e+00   8.9605024688151858e+00   6.0480894186934627e+01   4.5655948751640189e+01   8.0993372358018291e+01   8.8624382501860168e+01   4.3246337923806522e+01   5.6521789888825325e+01   5.3985767935548871e+01   6.1537101983645492e+01   2.1314056538685165e+01   3.9157160432944117e+01   7.7584275724282081e+00   7.3368993364121904e+00   2.1140238283007992e+01   9.1988018320443619e+00   3.1478801119294634e+01   1.7511445098458541e+01   3.5420711043666543e+01   2.2738692888669085e+01   3.2717230677153218e+01   2.2663672127885928e+01   2.3575648701953167e+01   1.8942502029801332e+01   1.2994545083831150e+01   1.2758858523927913e+01   7.6212033394868355e+00   1.0151435610943956e+01   1.2101546750475149e+01   1.1079308542717639e+01   6.4903541578115878e+01   3.6956918256271045e+01   3.8863884046279345e+01   4.6835432841753182e+01   3.9069045478253521e+01   4.4420619502448510e+01   3.9942715060300650e+01   4.4614106002704894e+01   3.9018630631581765e+01   4.4366740665417218e+01   3.1871498949658356e+01   3.9610413431439873e+01   2.4430086560052032e+01   2.4936718751866231e+01   2.1554765104957688e+01   2.6505506255148756e+01   3.5803202884546920e+01   1.9231844652307569e+01   3.1933295591070934e+01   3.7005762303099850e+01   7.7109958852935785e+00   2.0348095492140555e+01   1.3219900413001453e+01   1.0740743891059054e+01   5.0542214749539667e+01   4.2646746573224561e+01   4.8479080599865107e+01   6.8865346630164566e+01   1.0138591981659948e+01   3.4305320973790693e+01   9.7866527990582277e+00   9.4005715136569012e+00   1.0507224344929006e+02   7.2560271249568430e+01   1.3574797407432541e+02   1.4297581199105318e+02   5.9169151505849825e+01   9.6789659654880865e+01   9.6171978959726481e+00   8.4856984786161203e+00   2.1426248048610443e+01   1.5069086110762822e+01   1.3171412512858521e+02   8.8471780292765089e+01   1.7786149000981203e+02   1.8586522034089663e+02   1.1679524054947875e+02   1.2351702101583278e+02   1.6592448289826496e+02   1.6922251983143940e+02   1.2984953671104765e+02   1.2369088119597407e+02   1.7490294894410229e+02   1.8751085930652584e+02   1.0912999089275024e+02   1.1968880454242868e+02   1.4174938339597347e+02   1.5054972498960586e+02   9.8475957445027063e+01   9.9065205518254842e+01   1.2730133411670219e+02   1.3913150170424043e+02   5.7176145936889419e+01   8.9688996034583610e+01   7.9916344788983631e+00   7.2393631511365077e+00   9.7575234541349030e+00   8.5587281727660880e+00   7.3411717883803135e+01   4.9495353759246825e+01   1.0037673774576805e+02   1.0504833093896102e+02   5.3790720092771309e+01   6.7148267771754263e+01   6.5510532315844543e+01   7.1231262065627902e+01   3.0889215640093475e+01   4.6595549266308780e+01   9.3241852588311058e+00   9.2429581166829138e+00   8.3475490452107408e+00   9.9912316517378521e+00   7.6041054530580681e+00   7.7912230477530526e+00   6.8008123157665894e+00   6.7459423070764952e+00   7.6196093764815904e+00   6.5502069586323888e+00   9.7586301743308166e+00   7.7828187864214700e+00   1.2560452005160824e+01   9.6580880293353317e+00   1.3451443569712440e+01   1.1421639307655358e+01   1.2400555961801597e+01   1.1726923044746494e+01   6.2750085699628499e+01   5.0366617406268290e+01   6.7859298964795130e+01   7.4051193923684821e+01   6.6662668764249048e+01   7.1091616287141775e+01   6.7722432128690599e+01   7.1119615063000012e+01   6.5848753169928955e+01   7.0003598287457564e+01   5.5198256726957936e+01   6.1816182378969806e+01   2.8951974437426617e+01   4.2221751368946457e+01   2.9731787542170355e+01   2.3517232776533401e+01   2.4691823504130891e+01   2.8009526315841459e+01   4.5368021221293908e+01   4.9834628783079822e+01   2.1001237894830641e+01   3.9190963942953722e+01   7.8227935047025596e+00   6.8996824865093060e+00   7.4246355763862169e+01   5.4304191825271594e+01   8.3045124339449316e+01   9.8958553649126657e+01   3.0252151973752373e+01   5.7566607641849366e+01   8.0726095321429696e+00   7.2260635412522261e+00   1.0665834707816032e+02   7.1540193242944056e+01   1.4724458123531701e+02   1.4605615909840603e+02   6.6714606157931613e+01   1.0601220146817539e+02   8.5802265418771082e+00   8.1835250383293623e+00   2.1676983634276684e+01   1.4277619767712697e+01   1.4046663773764021e+02   9.2263424881452906e+01   1.9278165403601491e+02   1.9783005172100687e+02   1.2337866414569054e+02   1.3217148531594620e+02   1.7582305816700128e+02   1.7570205303466187e+02   1.4012118646726432e+02   1.3015872843333079e+02   1.9037373147868618e+02   2.0130609302811672e+02   1.1639566972795936e+02   1.2818022221901290e+02   1.5126221201192382e+02   1.5816146258515539e+02   1.0569949866251380e+02   1.0489838875034675e+02   1.3702433784426910e+02   1.4806048443357810e+02   6.3017508828501882e+01   9.5502682680932764e+01   8.5887922156109102e+00   8.5773037285995137e+00   1.1809367808750480e+01   1.0432855169788500e+01   7.3419281353507415e+01   4.6216479065480563e+01   1.0860832468754177e+02   1.0658850875999156e+02   6.0914828775521109e+01   7.3262584510014946e+01   6.4811113947053386e+01   7.4743477508190253e+01   3.3015654957241040e+01   4.2789059770901474e+01   8.6590664204791175e+00   8.4362322548675497e+00   2.6270663970238861e+01   2.6934073339041035e+01   3.2401692989021306e+01   3.9595087266779004e+01   3.6889939269679815e+01   5.1696527744745637e+01   3.2771485306441349e+01   5.3213595413982709e+01   2.2472309635771882e+01   4.3401210379084176e+01   1.0432202537960013e+01   2.6713449277423699e+01   5.8747756082367548e+00   1.1321975234922673e+01   1.0268844421252490e+01   1.0776850001563478e+01   1.0735983523742665e+02   7.9813831072438830e+01   4.5762586753713165e+01   5.6832390075577194e+01   4.7225968876947206e+01   4.6127032144987353e+01   4.9174604093400795e+01   4.3442665441949373e+01   4.8542595021331167e+01   4.2388769774982229e+01   4.2700628042794108e+01   4.0628806351662178e+01   3.1171091873573680e+01   3.2949371539835553e+01   2.8664652174597958e+01   2.8612480847879855e+01   4.1708999143535543e+01   3.7685242082674307e+01   7.2119919339154848e+01   6.9833967110327407e+01   3.2459561826190267e+01   5.9196303917862451e+01   6.9677108564665460e+00   7.4831449644265442e+00   8.0530010179295559e+01   5.5517817251280022e+01   1.0440837617329082e+02   1.0835985278782586e+02   4.3826218971106719e+01   7.3257322282949033e+01   6.9211520705168157e+00   6.0647445601656313e+00   1.0132183812590303e+02   6.7577882400579142e+01   1.4804674223937278e+02   1.4085997224906350e+02   6.9538145202976494e+01   1.0817222656107930e+02   8.1443439861752456e+00   9.1262712939319162e+00   1.8950954929683185e+01   1.1057890580270264e+01   1.4493395865949100e+02   9.4096878967404351e+01   2.0101511993452061e+02   2.0363680770546588e+02   1.2586689084493041e+02   1.3690614566787553e+02   1.7869085468147023e+02   1.7651690836222622e+02   1.4458181537014394e+02   1.3201456340138984e+02   1.9867130238495619e+02   2.0737183776726391e+02   1.2001718783831085e+02   1.3278284596716836e+02   1.5562838201326554e+02   1.6136993055268852e+02   1.0942791006829006e+02   1.0775516618876802e+02   1.4244270097249697e+02   1.5281900681572645e+02   6.5965338637614579e+01   9.8793453462397011e+01   1.1082382239359944e+01   1.0177002631746490e+01   2.0984113971376132e+01   1.9264959759271584e+01   5.9537557329407868e+01   3.4074585045576114e+01   1.0512037266655804e+02   9.1340883221960908e+01   6.4603129704668262e+01   7.2807285719101984e+01   6.4532676616617564e+01   7.9932403539994695e+01   3.2829787326434428e+01   4.0638135161662817e+01   2.1403089496471825e+01   2.7159390275239883e+01   3.4653145925846154e+01   2.6533966734482128e+01   5.8026582544088697e+01   5.2239446508480178e+01   7.5411132056096577e+01   7.3966397573052461e+01   7.5448675901194065e+01   7.9816266541890698e+01   6.1336886011138937e+01   6.9525844932502224e+01   4.0414151579104733e+01   5.1003907685304135e+01   2.3696554370391016e+01   3.2906307625964274e+01   2.1776585069239051e+01   2.4909031285050283e+01   1.4101376587751454e+02   8.4853189358203366e+01   8.0248026253923925e+01   8.3994180498437942e+01   6.9374442184155669e+01   7.7033056929250392e+01   6.5436272224971702e+01   7.1962504111281760e+01   6.1568769093781881e+01   6.7302985259794724e+01   5.5693449921817361e+01   5.9650398072212028e+01   3.5078466122280929e+01   4.6746854421877678e+01   3.2206274783697332e+01   3.3312110501590375e+01   4.8046055311569383e+01   3.8720682328207729e+01   9.1365803496949411e+01   8.1152848262246096e+01   4.1422743897699384e+01   7.0591688204876064e+01   7.2933255344729098e+00   9.6618093864688053e+00   7.8387457527310133e+01   5.2980761381925333e+01   1.1059823834102552e+02   1.0729023787502425e+02   4.9691835953383254e+01   7.9058087336080149e+01   6.6836339173615542e+00   6.0594362332434226e+00   9.5042573666624847e+01   6.3959861770516241e+01   1.4341194022682680e+02   1.3413092992549520e+02   6.8836793812947477e+01   1.0627623894891434e+02   8.6186818536549463e+00   9.8658066403491276e+00   1.3653605264239433e+01   8.1125969288394746e+00   1.4526268588878386e+02   9.2871803617517003e+01   2.0364015944899552e+02   2.0302949555774106e+02   1.2578739787495186e+02   1.3795918089914574e+02   1.7748654694719531e+02   1.7409774230001284e+02   1.4498984080057730e+02   1.3087065971764355e+02   2.0150333186398592e+02   2.0790649783651565e+02   1.2125335626997716e+02   1.3431959980475955e+02   1.5728632246119986e+02   1.6214311079006566e+02   1.1127673312672042e+02   1.0897645065447149e+02   1.4573979668775362e+02   1.5551803333059985e+02   6.7657061839928716e+01   1.0099483310009629e+02   1.3322798648811251e+01   1.0880023770649483e+01   4.7028927104439312e+01   3.6705698528651595e+01   4.8607487285687448e+01   6.0782490855778505e+01   8.1846554478559653e+01   5.8858530982970407e+01   6.0999815841700524e+01   6.3552194739443010e+01   6.9517808395731237e+01   7.7389770160266750e+01   3.6112679372891058e+01   4.2730420839723749e+01   3.2609478387410931e+01   3.4624077199749799e+01   2.7359093479335328e+01   3.7018006961414414e+01   4.1247946299541468e+01   3.8831820724762537e+01   5.4941294512347540e+01   5.3118746210254763e+01   5.7313947437206913e+01   5.8878768597513293e+01   4.9095189432699215e+01   5.2676445644180070e+01   3.6563106381457594e+01   4.0175634085496434e+01   2.5361522953945062e+01   2.7458815121295618e+01   2.0949460276956010e+01   1.9251661773001370e+01   8.4724950061380696e+01   4.3501955157390412e+01   4.8147835684545015e+01   5.7551581396469061e+01   5.8278181971659066e+01   3.6969828883210653e+01   5.8464065461251344e+01   4.0078007194539552e+01   5.4345461946648115e+01   3.9237389511059369e+01   4.5712106032894823e+01   3.4892621663916600e+01   3.3781375283088821e+01   2.8346034048580869e+01   3.5500864256053902e+01   2.2967116873894661e+01   4.6144747534327855e+01   3.6579124569532119e+01   9.4933160332968299e+01   7.9211962174262908e+01   4.5436550872094990e+01   7.4627814921596482e+01   7.9611079912796026e+00   1.1015906939072879e+01   7.4066734227175161e+01   5.0270661158113448e+01   1.0919674460712621e+02   1.0291471902561503e+02   5.0645084119401851e+01   7.9210087114754060e+01   6.6568760308726223e+00   6.2522402741505410e+00   9.0584323985889611e+01   6.1757902582439598e+01   1.3849098874367124e+02   1.2900449768824623e+02   6.7249584710119592e+01   1.0370220837444377e+02   8.3762696200738738e+00   8.9569333166156682e+00   9.9361096938898452e+00   7.8105550120831362e+00   1.4012797960744251e+02   8.8170733471396900e+01   1.9929998599762123e+02   1.9483195935954853e+02   1.2337525945580980e+02   1.3485577692787038e+02   1.7362558656689282e+02   1.6946257582222952e+02   1.4239914610136873e+02   1.2763805634311039e+02   2.0004835165395127e+02   2.0406350694936768e+02   1.2067857251523543e+02   1.3326570140240395e+02   1.5716486360056788e+02   1.6107496030296338e+02   1.1165446944800819e+02   1.0894420357032772e+02   1.4777622603546106e+02   1.5636280069408014e+02   6.8873925628086468e+01   1.0262318948122459e+02   1.4107209205270660e+01   1.1104824280150575e+01   6.7035646472271665e+01   4.4912107862194532e+01   7.5632356001845409e+01   9.1787191755525328e+01   5.1921629472754411e+01   5.4955586505325762e+01   5.2343451520715675e+01   5.7232423263527103e+01   5.9921079606767542e+01   6.0706362744614800e+01   4.7393202607394450e+01   5.2439362384010671e+01   4.6569107495898635e+01   4.8958908962005111e+01   6.0140474388978781e+01   6.5416882906385652e+01   6.8331927648329753e+01   7.4228284286034963e+01   8.4082837083416280e+01   8.6372691052831726e+01   8.7299854590552329e+01   9.0766539563592517e+01   7.5426653095260022e+01   8.2839722788063455e+01   5.5276501706813832e+01   6.5077099984802999e+01   3.6661959632000830e+01   4.4744854318038406e+01   3.4996569554614489e+01   3.4282533008500344e+01   5.7922308427345570e+01   6.8929648784513503e+01   4.6015563216299746e+01   6.7966021096210895e+01   8.5823056821080854e+00   1.2176602227261107e+01   9.6604166903908322e+00   1.0618807837538970e+01   9.9281073386767034e+00   1.1664282257645795e+01   9.4198288582085610e+00   1.2262710932535061e+01   9.3504703221985359e+00   1.2819169728036526e+01   2.3460489437976495e+01   1.3680050494085226e+01   4.9891373652973606e+01   4.1253008638000324e+01   9.4763406105535324e+01   7.9603775678239444e+01   4.5607625027574208e+01   7.4644509591555661e+01   8.1931123264625949e+00   1.1095392676581969e+01   7.0520298375761342e+01   4.8278977299246804e+01   1.0546927223333995e+02   9.8349494164561449e+01   4.9839602271860102e+01   7.7299496424438956e+01   6.8592