<?xml version="1.0"?>
<VTKFile type="UnstructuredGrid"  version="0.1"  >
<UnstructuredGrid>
<Piece  NumberOfPoints="2401" NumberOfCells="4608">
<Points>
<DataArray  type="Float64"  NumberOfComponents="3"  format="ascii">0 0 0  0.001070538380698371 0 0  0.004277569313095364 0 0  0.009607359798386061 0 0  0.01703708685546806 0 0  0.02653493525245065 0 0  0.03806023374436157 0 0  0.05156362923366253 0 0  0.06698729810778931 0 0  0.08426519384873815 0 0  0.1033233298543955 0 0  0.1240800962605269 0 0  0.1464466094067445 0 0  0.1703270924499866 0 0  0.1956192854956637 0 0  0.2222148834902257 0 0  0.2500000000000299 0 0  0.2788556548905322 0 0  0.308658283817491 0 0  0.339280267348458 0 0  0.3705904774487813 0 0  0.4024548389919803 0 0  0.4347369038900211 0 0  0.467298435384978 0 0  0.5000000000000517 0 0  0.5327015646151253 0 0  0.5652630961100813 0 0  0.5975451610081212 0 0  0.6294095225513188 0 0  0.6607197326516399 0 0  0.6913417161826045 0 0  0.7211443451095605 0 0  0.7500000000000597 0 0  0.7777851165098603 0 0  0.8043807145044185 0 0  0.829672907550091 0 0  0.8535533905933287 0 0  0.8759199037395413 0 0  0.8966766701456674 0 0  0.9157348061513193 0 0  0.9330127018922625 0 0  0.9484363707663832 0 0  0.961939766255678 0 0  0.9734650647475827 0 0  0.9829629131445586 0 0  0.9903926402016341 0 0  0.9957224306869181 0 0  0.9989294616193084 0 0  1 0 0  0 0.02083333333333333 0  0.001070538380698371 0.02083333333333333 0  0.004277569313095364 0.02083333333333333 0  0.009607359798386061 0.02083333333333333 0  0.01703708685546806 0.02083333333333333 0  0.02653493525245065 0.02083333333333333 0  0.03806023374436157 0.02083333333333333 0  0.05156362923366253 0.02083333333333333 0  0.06698729810778931 0.02083333333333333 0  0.08426519384873815 0.02083333333333333 0  0.1033233298543955 0.02083333333333333 0  0.1240800962605269 0.02083333333333333 0  0.1464466094067445 0.02083333333333333 0  0.1703270924499866 0.02083333333333333 0  0.1956192854956637 0.02083333333333333 0  0.2222148834902257 0.02083333333333333 0  0.2500000000000299 0.02083333333333333 0  0.2788556548905322 0.02083333333333333 0  0.308658283817491 0.02083333333333333 0  0.339280267348458 0.02083333333333333 0  0.3705904774487813 0.02083333333333333 0  0.4024548389919803 0.02083333333333333 0  0.4347369038900211 0.02083333333333333 0  0.467298435384978 0.02083333333333333 0  0.5000000000000517 0.02083333333333333 0  0.5327015646151253 0.02083333333333333 0  0.5652630961100813 0.02083333333333333 0  0.5975451610081212 0.02083333333333333 0  0.6294095225513188 0.02083333333333333 0  0.6607197326516399 0.02083333333333333 0  0.6913417161826045 0.02083333333333333 0  0.7211443451095605 0.02083333333333333 0  0.7500000000000597 0.02083333333333333 0  0.7777851165098603 0.02083333333333333 0  0.8043807145044185 0.02083333333333333 0  0.829672907550091 0.02083333333333333 0  0.8535533905933287 0.02083333333333333 0  0.8759199037395413 0.02083333333333333 0  0.8966766701456674 0.02083333333333333 0  0.9157348061513193 0.02083333333333333 0  0.9330127018922625 0.02083333333333333 0  0.9484363707663832 0.02083333333333333 0  0.961939766255678 0.02083333333333333 0  0.9734650647475827 0.02083333333333333 0  0.9829629131445586 0.02083333333333333 0  0.9903926402016341 0.02083333333333333 0  0.9957224306869181 0.02083333333333333 0  0.9989294616193084 0.02083333333333333 0  1 0.02083333333333333 0  0 0.04166666666666666 0  0.001070538380698371 0.04166666666666666 0  0.004277569313095364 0.04166666666666666 0  0.009607359798386061 0.04166666666666666 0  0.01703708685546806 0.04166666666666666 0  0.02653493525245065 0.04166666666666666 0  0.03806023374436157 0.04166666666666666 0  0.05156362923366253 0.04166666666666666 0  0.06698729810778931 0.04166666666666666 0  0.08426519384873815 0.04166666666666666 0  0.1033233298543955 0.04166666666666666 0  0.1240800962605269 0.04166666666666666 0  0.1464466094067445 0.04166666666666666 0  0.1703270924499866 0.04166666666666666 0  0.1956192854956637 0.04166666666666666 0  0.2222148834902257 0.04166666666666666 0  0.2500000000000299 0.04166666666666666 0  0.2788556548905322 0.04166666666666666 0  0.308658283817491 0.04166666666666666 0  0.339280267348458 0.04166666666666666 0  0.3705904774487813 0.04166666666666666 0  0.4024548389919803 0.04166666666666666 0  0.4347369038900211 0.04166666666666666 0  0.467298435384978 0.04166666666666666 0  0.5000000000000517 0.04166666666666666 0  0.5327015646151253 0.04166666666666666 0  0.5652630961100813 0.04166666666666666 0  0.5975451610081212 0.04166666666666666 0  0.6294095225513188 0.04166666666666666 0  0.6607197326516399 0.04166666666666666 0  0.6913417161826045 0.04166666666666666 0  0.7211443451095605 0.04166666666666666 0  0.7500000000000597 0.04166666666666666 0  0.7777851165098603 0.04166666666666666 0  0.8043807145044185 0.04166666666666666 0  0.829672907550091 0.04166666666666666 0  0.8535533905933287 0.04166666666666666 0  0.8759199037395413 0.04166666666666666 0  0.8966766701456674 0.04166666666666666 0  0.9157348061513193 0.04166666666666666 0  0.9330127018922625 0.04166666666666666 0  0.9484363707663832 0.04166666666666666 0  0.961939766255678 0.04166666666666666 0  0.9734650647475827 0.04166666666666666 0  0.9829629131445586 0.04166666666666666 0  0.9903926402016341 0.04166666666666666 0  0.9957224306869181 0.04166666666666666 0  0.9989294616193084 0.04166666666666666 0  1 0.04166666666666666 0  0 0.0625 0  0.001070538380698371 0.0625 0  0.004277569313095364 0.0625 0  0.009607359798386061 0.0625 0  0.01703708685546806 0.0625 0  0.02653493525245065 0.0625 0  0.03806023374436157 0.0625 0  0.05156362923366253 0.0625 0  0.06698729810778931 0.0625 0  0.08426519384873815 0.0625 0  0.1033233298543955 0.0625 0  0.1240800962605269 0.0625 0  0.1464466094067445 0.0625 0  0.1703270924499866 0.0625 0  0.1956192854956637 0.0625 0  0.2222148834902257 0.0625 0  0.2500000000000299 0.0625 0  0.2788556548905322 0.0625 0  0.308658283817491 0.0625 0  0.339280267348458 0.0625 0  0.3705904774487813 0.0625 0  0.4024548389919803 0.0625 0  0.4347369038900211 0.0625 0  0.467298435384978 0.0625 0  0.5000000000000517 0.0625 0  0.5327015646151253 0.0625 0  0.5652630961100813 0.0625 0  0.5975451610081212 0.0625 0  0.6294095225513188 0.0625 0  0.6607197326516399 0.0625 0  0.6913417161826045 0.0625 0  0.7211443451095605 0.0625 0  0.7500000000000597 0.0625 0  0.7777851165098603 0.0625 0  0.8043807145044185 0.0625 0  0.829672907550091 0.0625 0  0.8535533905933287 0.0625 0  0.8759199037395413 0.0625 0  0.8966766701456674 0.0625 0  0.9157348061513193 0.0625 0  0.9330127018922625 0.0625 0  0.9484363707663832 0.0625 0  0.961939766255678 0.0625 0  0.9734650647475827 0.0625 0  0.9829629131445586 0.0625 0  0.9903926402016341 0.0625 0  0.9957224306869181 0.0625 0  0.9989294616193084 0.0625 0  1 0.0625 0  0 0.08333333333333333 0  0.001070538380698371 0.08333333333333333 0  0.004277569313095364 0.08333333333333333 0  0.009607359798386061 0.08333333333333333 0  0.01703708685546806 0.08333333333333333 0  0.02653493525245065 0.08333333333333333 0  0.03806023374436157 0.08333333333333333 0  0.05156362923366253 0.08333333333333333 0  0.06698729810778931 0.08333333333333333 0  0.08426519384873815 0.08333333333333333 0  0.1033233298543955 0.08333333333333333 0  0.1240800962605269 0.08333333333333333 0  0.1464466094067445 0.08333333333333333 0  0.1703270924499866 0.08333333333333333 0  0.1956192854956637 0.08333333333333333 0  0.2222148834902257 0.08333333333333333 0  0.2500000000000299 0.08333333333333333 0  0.2788556548905322 0.08333333333333333 0  0.308658283817491 0.08333333333333333 0  0.339280267348458 0.08333333333333333 0  0.3705904774487813 0.08333333333333333 0  0.4024548389919803 0.08333333333333333 0  0.4347369038900211 0.08333333333333333 0  0.467298435384978 0.08333333333333333 0  0.5000000000000517 0.08333333333333333 0  0.5327015646151253 0.08333333333333333 0  0.5652630961100813 0.08333333333333333 0  0.5975451610081212 0.08333333333333333 0  0.6294095225513188 0.08333333333333333 0  0.6607197326516399 0.08333333333333333 0  0.6913417161826045 0.08333333333333333 0  0.7211443451095605 0.08333333333333333 0  0.7500000000000597 0.08333333333333333 0  0.7777851165098603 0.08333333333333333 0  0.8043807145044185 0.08333333333333333 0  0.829672907550091 0.08333333333333333 0  0.8535533905933287 0.08333333333333333 0  0.8759199037395413 0.08333333333333333 0  0.8966766701456674 0.08333333333333333 0  0.9157348061513193 0.08333333333333333 0  0.9330127018922625 0.08333333333333333 0  0.9484363707663832 0.08333333333333333 0  0.961939766255678 0.08333333333333333 0  0.9734650647475827 0.08333333333333333 0  0.9829629131445586 0.08333333333333333 0  0.9903926402016341 0.08333333333333333 0  0.9957224306869181 0.08333333333333333 0  0.9989294616193084 0.08333333333333333 0  1 0.08333333333333333 0  0 0.1041666666666667 0  0.001070538380698371 0.1041666666666667 0  0.004277569313095364 0.1041666666666667 0  0.009607359798386061 0.1041666666666667 0  0.01703708685546806 0.1041666666666667 0  0.02653493525245065 0.1041666666666667 0  0.03806023374436157 0.1041666666666667 0  0.05156362923366253 0.1041666666666667 0  0.06698729810778931 0.1041666666666667 0  0.08426519384873815 0.1041666666666667 0  0.1033233298543955 0.1041666666666667 0  0.1240800962605269 0.1041666666666667 0  0.1464466094067445 0.1041666666666667 0  0.1703270924499866 0.1041666666666667 0  0.1956192854956637 0.1041666666666667 0  0.2222148834902257 0.1041666666666667 0  0.2500000000000299 0.1041666666666667 0  0.2788556548905322 0.1041666666666667 0  0.308658283817491 0.1041666666666667 0  0.339280267348458 0.1041666666666667 0  0.3705904774487813 0.1041666666666667 0  0.4024548389919803 0.1041666666666667 0  0.4347369038900211 0.1041666666666667 0  0.467298435384978 0.1041666666666667 0  0.5000000000000517 0.1041666666666667 0  0.5327015646151253 0.1041666666666667 0  0.5652630961100813 0.1041666666666667 0  0.5975451610081212 0.1041666666666667 0  0.62
[...]
<PointData  Scalars="f_2078548"> 
<DataArray  type="Float64"  Name="f_2078548"  format="ascii">1.6632521970817032e+02  1.6632749424727999e+02  1.6632128751467104e+02  1.6629996460062674e+02  1.6623126815905638e+02  1.6610117945248680e+02  1.6581724156724229e+02  1.6532981191364166e+02  1.6462976589501920e+02  1.6346116659460802e+02  1.6213315181614365e+02  1.6040852004086639e+02  1.5843353346087304e+02  1.5622205069302103e+02  1.5411479479859165e+02  1.5133291680425504e+02  1.4829752047870232e+02  1.4530023653854252e+02  1.4208764839976476e+02  1.3833770000582535e+02  1.3506322685841036e+02  1.3217668038684673e+02  1.2937355776185481e+02  1.2625716672642405e+02  1.2294677031600801e+02  1.1916694394553930e+02  1.1540552437222357e+02  1.1282407381909965e+02  1.0965499106434606e+02  1.0622185779001884e+02  1.0324272988482984e+02  1.0097100792485480e+02  9.8887811434713271e+01  9.6557689589027049e+01  9.5055647126878497e+01  9.3429816943157363e+01  9.1867614067452635e+01  9.0697501071750494e+01  8.9749258757235680e+01  8.9031450829984550e+01  8.8566884650330579e+01  8.8227860083159470e+01  8.8018931818436940e+01  8.7894332108136382e+01  8.7825367575419193e+01  8.7786477489731084e+01  8.7768715638099778e+01  8.7768887200138849e+01  8.7775706405958942e+01  1.6654026352616708e+02  1.6653583132965474e+02  1.6654295332496181e+02  1.6655772462920851e+02  1.6651451714773242e+02  1.6638524037317760e+02  1.6606405537272448e+02  1.6565410675519453e+02  1.6507123170670351e+02  1.6366242581479111e+02  1.6236787511227899e+02  1.6064260374610458e+02  1.5862800125217802e+02  1.5625897246236735e+02  1.5422561956490821e+02  1.5154906218192033e+02  1.4831297479812255e+02  1.4523925223182579e+02  1.4228313526575721e+02  1.3851040184800357e+02  1.3503173771436113e+02  1.3225880224704963e+02  1.2946354454308491e+02  1.2623015211741422e+02  1.2296536791451997e+02  1.1926388489136575e+02  1.1530177396415993e+02  1.1275727599970318e+02  1.0977789752870947e+02  1.0621897604528395e+02  1.0302403509133649e+02  1.0078677698217199e+02  9.8948085400571244e+01  9.6519163551352037e+01  9.5161979057151768e+01  9.3453756144017262e+01  9.1782021767619739e+01  9.0668367735138730e+01  8.9629798009635294e+01  8.9009976914151025e+01  8.8507155172099345e+01  8.8203212173097441e+01  8.8047681011487953e+01  8.7965793799918345e+01  8.7925683377981272e+01  8.7922500347237190e+01  8.7962917830689108e+01  8.7993631616931410e+01  8.7994293835408726e+01  1.6680645881432002e+02  1.6680826752717991e+02  1.6682071537119532e+02  1.6684862630295714e+02  1.6687019845611559e+02  1.6682076020401902e+02  1.6659328349581943e+02  1.6596533482493314e+02  1.6549105441412576e+02  1.6476961518197183e+02  1.6272832843962752e+02  1.6100159849553859e+02  1.5878343526086883e+02  1.5683949235337610e+02  1.5423922526010873e+02  1.5165660879429291e+02  1.4873784815109357e+02  1.4496752547495612e+02  1.4245498385611344e+02  1.3963379025927739e+02  1.3484823903815990e+02  1.3224567816492544e+02  1.2978739709607430e+02  1.2618292531439994e+02  1.2296782927842598e+02  1.1939299531797609e+02  1.1525866708322630e+02  1.1268984718952113e+02  1.1009294162789661e+02  1.0617290969621496e+02  1.0284891839355021e+02  1.0065118537840213e+02  9.8908116005876181e+01  9.6518481921832176e+01  9.5227782748094782e+01  9.3837674189619690e+01  9.1725163362718703e+01  9.0645652526578260e+01  8.9621089665790635e+01  8.9141875319214748e+01  8.8736178168296831e+01  8.8394702563101546e+01  8.8342222811174850e+01  8.8359538683897895e+01  8.8418915291177910e+01  8.8502358817980038e+01  8.8578985107459474e+01  8.8603410334440568e+01  8.8600647726798513e+01  1.6682063244494759e+02  1.6681864173514029e+02  1.6682199441578049e+02  1.6684758794706195e+02  1.6690956459360359e+02  1.6698835256349346e+02  1.6684154274668890e+02  1.6628976441774361e+02  1.6554876862292991e+02  1.6490123534912567e+02  1.6380665445142503e+02  1.6121986727672459e+02  1.5884026263101842e+02  1.5675908159134246e+02  1.5487336018899580e+02  1.5174128911050255e+02  1.4847123347005655e+02  1.4490022521046825e+02  1.4248409366301021e+02  1.4022055360234322e+02  1.3481705445439638e+02  1.3224049305112587e+02  1.2994762711919265e+02  1.2622824462046815e+02  1.2286776749688231e+02  1.1925053267005619e+02  1.1563875422075965e+02  1.1261110225233496e+02  1.1009994783477775e+02  1.0598453072472446e+02  1.0327673760676524e+02  1.0072855479456311e+02  9.8844488643018508e+01  9.6489244956836075e+01  9.5226815552724304e+01  9.4018680444000040e+01  9.1906160050057210e+01  9.0879551124955441e+01  9.0126395732433323e+01  8.9501073617142126e+01  8.9197208562931991e+01  8.8924925390538064e+01  8.8889205066979940e+01  8.8993245679706860e+01  8.9159475844645101e+01  8.9300883957418051e+01  8.9378584587295691e+01  8.9399212531105960e+01  8.9399584664941841e+01  1.6664658979875276e+02  1.6664762066822209e+02  1.6667620986263100e+02  1.6672593533990894e+02  1.6677594771225853e+02  1.6677147944088497e+02  1.6666495913987092e+02  1.6623174731652315e+02  1.6549891840286577e+02  1.6470675232307488e+02  1.6367555590965830e+02  1.6133105081216763e+02  1.5849143160592214e+02  1.5637138321752647e+02  1.5484443660527955e+02  1.5230890839881667e+02  1.4833174375678914e+02  1.4486290579628357e+02  1.4247626683838558e+02  1.4027881343211791e+02  1.3496188204998774e+02  1.3230085715874051e+02  1.2995735369987952e+02  1.2652787034101216e+02  1.2249550124436792e+02  1.1900168354151253e+02  1.1626279066466716e+02  1.1257541777271467e+02  1.0986252822132555e+02  1.0578816068856241e+02  1.0368546962157133e+02  1.0126328302612575e+02  9.8762647226946399e+01  9.6481678744639609e+01  9.5222038626984954e+01  9.4097289489700003e+01  9.2369825465893683e+01  9.1549690458186319e+01  9.0883536426918369e+01  9.0418427510074963e+01  9.0106978349274513e+01  9.0290419978744382e+01  9.0550423287621882e+01  9.0705459691722609e+01  9.0758547212796600e+01  9.0748514527902955e+01  9.0716392949561538e+01  9.0685882924016298e+01  9.0677027757959422e+01  1.6588038586181079e+02  1.6588211881756592e+02  1.6587423311187985e+02  1.6589372558214532e+02  1.6597798811175619e+02  1.6612124228010080e+02  1.6611328934905760e+02  1.6589303677937960e+02  1.6498014295481966e+02  1.6401512362661455e+02  1.6294042674367080e+02  1.6121450183434018e+02  1.5779781626335802e+02  1.5590576851029533e+02  1.5457679979731938e+02  1.5273401285715383e+02  1.4800336669729097e+02  1.4494285382420338e+02  1.4239499452796667e+02  1.3996282893985332e+02  1.3513460326079769e+02  1.3238378979302513e+02  1.2987030347627672e+02  1.2697844108321456e+02  1.2200599773364010e+02  1.1889596001257387e+02  1.1648862030157616e+02  1.1294256789762213e+02  1.0946577010214415e+02  1.0594590826779051e+02  1.0385384840369176e+02  1.0191526620813920e+02  9.8974517326083657e+01  9.6736194963074283e+01  9.5283063754175330e+01  9.4243184552751543e+01  9.2930418348578627e+01  9.2407519672520337e+01  9.1957865875888047e+01  9.1720426735923468e+01  9.1591398138976984e+01  9.1563136253176154e+01  9.1736999084521457e+01  9.1886013716609881e+01  9.1993440831889956e+01  9.2063499849039758e+01  9.2103574366883421e+01  9.2121413256538503e+01  9.2130130100440596e+01  1.6505821144243527e+02  1.6505504577332641e+02  1.6505303300851008e+02  1.6506031003453168e+02  1.6508730481291437e+02  1.6514906501958612e+02  1.6524101949454217e+02  1.6505974472543937e+02  1.6415581178694924e+02  1.6313213302899274e+02  1.6220885903992064e+02  1.6100339524348021e+02  1.5714800569918356e+02  1.5545150672739621e+02  1.5423330204886170e+02  1.5276433334736618e+02  1.4705833924392073e+02  1.4462602106783731e+02  1.4246408097302452e+02  1.3973815465599026e+02  1.3469991203874966e+02  1.3224289110186271e+02  1.2983807805632796e+02  1.2697487091339868e+02  1.2219270566260226e+02  1.1892483034494600e+02  1.1648747830596409e+02  1.1338069358111360e+02  1.0927965990954334e+02  1.0646483149854635e+02  1.0404237966803521e+02  1.0222702766174626e+02  9.9505783462607639e+01  9.7509881151940704e+01  9.5596756249966134e+01  9.4687952458778341e+01  9.3964555804846540e+01  9.3412483481340004e+01  9.2929308490147392e+01  9.2641261206356390e+01  9.2608969074714082e+01  9.2643651327093764e+01  9.2819191892029309e+01  9.3026104080993406e+01  9.3173330752852308e+01  9.3261398518968079e+01  9.3300239503677972e+01  9.3305641287685631e+01  9.3300805619055936e+01  1.6424516625720346e+02  1.6424419833584250e+02  1.6425430335075501e+02  1.6427116509554492e+02  1.6428018611098003e+02  1.6426294199731839e+02  1.6421904262706806e+02  1.6392994189487919e+02  1.6312947779114489e+02  1.6227213632010327e+02  1.6147925481590784e+02  1.6043889291966929e+02  1.5660177684442894e+02  1.5496749014951595e+02  1.5379916777268355e+02  1.5242790253252053e+02  1.4625156747602327e+02  1.4422399969791365e+02  1.4235175958857988e+02  1.3989852415636929e+02  1.3412944040478436e+02  1.3185817996362650e+02  1.2975384552253135e+02  1.2666149274322737e+02  1.2314252588137246e+02  1.1928340022478389e+02  1.1654040380464818e+02  1.1365691203897688e+02  1.0924396440990856e+02  1.0715990378686655e+02  1.0461849799462505e+02  1.0249895496920794e+02  1.0025145253718968e+02  9.8332549411129719e+01  9.6728751308717762e+01  9.6129679864345903e+01  9.5458087414933900e+01  9.4886443566781637e+01  9.4514430159179128e+01  9.4036820638504651e+01  9.3758556482419849e+01  9.4104167016697602e+01  9.4663303943816217e+01  9.4944084150134614e+01  9.5086070771409936e+01  9.5162933171939471e+01  9.5194372342163703e+01  9.5197647807729226e+01  9.5194562262987247e+01  1.6298003367736015e+02  1.6299322897910545e+02  1.6300516782686620e+02  1.6302008730319312e+02  1.6302817307405951e+02  1.6303761210654116e+02  1.6294677736780460e+02  1.6250513500444879e+02  1.6184663419006333e+02  1.6124830387439098e+02  1.6055239548153901e+02  1.5946351808500754e+02  1.5604366227657442e+02  1.5442489649777829e+02  1.5324541374636050e+02  1.5176590742529447e+02  1.4572634656396224e+02  1.4384565614129983e+02  1.4213631120801128e+02  1.3978282928978766e+02  1.3370420879026312e+02  1.3151473256632480e+02  1.2946756251534347e+02  1.2637981846622583e+02  1.2365496832547244e+02  1.2031016946687856e+02  1.1679143786127558e+02  1.1376716381470639e+02  1.0955564376404635e+02  1.0750629639884080e+02  1.0552723958242096e+02  1.0307100341471606e+02  1.0113817630237442e+02  9.9167541934240859e+01  9.7913362596099873e+01  9.7364631843107730e+01  9.6992251043493368e+01  9.6689924415950003e+01  9.6394349320254150e+01  9.6188045895068214e+01  9.6267129639360448e+01  9.6581414960137636e+01  9.6545107362017447e+01  9.6498820029398729e+01  9.6572459499031325e+01  9.6650626134266929e+01  9.6706179476090583e+01  9.6739659003753104e+01  9.6748916571673647e+01  1.6215082754496916e+02  1.6212566562552814e+02  1.6210504990137485e+02  1.6208583871818809e+02  1.6206065113582613e+02  1.6197420780420723e+02  1.6160315174734382e+02  1.6094874483351725e+02  1.6037144969029279e+02  1.5987227456795128e+02  1.5923030270650369e+02  1.5817567726250593e+02  1.5544368086612604e+02  1.5377533451805962e+02  1.5254470776563767e+02  1.5082446738226236e+02  1.4529607761338178e+02  1.4344852251831207e+02  1.4181882485542425e+02  1.3941246389411197e+02  1.3348428200272332e+02  1.3119764537579104e+02  1.2910974878748900e+02  1.2610415546599197e+02  1.2385684615599862e+02  1.2075500175669039e+02  1.1765856721974541e+02  1.1381640326683356e+02  1.0992288472930294e+02  1.0789853603911943e+02  1.0621031342978480e+02  1.0395531814028386e+02  1.0208563007190432e+02  1.0015100474474512e+02  9.8837376338056274e+01  9.8362542000847640e+01  9.8093874316261633e+01  9.7903428259151255e+01  9.7817472441627203e+01  9.7847707294678415e+01  9.8023789570809328e+01  9.8267103883416908e+01  9.8466949618683898e+01  9.8622133266209275e+01  9.8708535166333562e+01  9.8760522951258380e+01  9.8791943044223501e+01  9.8790783820962275e+01  9.8779141689009023e+01  1.6092039877115872e+02  1.6094960601352895e+02  1.6103197538105562e+02  1.6107713848545870e+02  1.6100015011748485e+02  1.6068699261245987e+02  1.6005068881186250e+02  1.5946553978831290e+02  1.5899025245941186e+02  1.5847204995615689e+02  1.5781003915185079e+02  1.5694253388604110e+02  1.5473975817542259e+02  1.5288737644588832e+02  1.5158136795240591e+02  1.4952292858377203e+02  1.4484736392562354e+02  1.4300186683687301e+02  1.4139340272662287e+02  1.3878003260995121e+02  1.3342976293459998e+02  1.3089123071302191e+02  1.2874246274061778e+02  1.2584603350063087e+02  1.2382320352948027e+02  1.2096591179114384e+02  1.1839642838335726e+02  1.1421093577762197e+02  1.1045596292589734e+02  1.0831391489147188e+02  1.0675751092592755e+02  1.0470985599744363e+02  1.0315485971590510e+02  1.0155744847306289e+02  1.0038274790587556e+02  1.0003213023804892e+02  9.9819898788316294e+01  9.9699430727281850e+01  9.9646095206861091e+01  9.9639343559056087e+01  9.9616628032329942e+01  9.9637969555898792e+01  9.9751033440754881e+01  9.9907250688788778e+01  1.0003885447372581e+02  1.0013554515952985e+02  1.0019453690999975e+02  1.0021916616227234e+02  1.0022941663391499e+02  1.5804511927577892e+02  1.5803676816526479e+02  1.5795930003395631e+02  1.5784798602796212e+02  1.5775306082961703e+02  1.5774095261651840e+02  1.5782992173381800e+02  1.5765603262801579e+02  1.5723732494627214e+02  1.5673514869969190e+02  1.5619938521753841e+02  1.5527183496354118e+02  1.5310024444741438e+02  1.5126241499087800e+02  1.4982467472939385e+02  1.4773690265862734e+02  1.4430601943217084e+02  1.4241651309424279e+02  1.4080078158197281e+02  1.3786618689878321e+02  1.3351652730049980e+02  1.3056388100392226e+02  1.2836593476352789e+02  1.2556647838931569e+02  1.2367389451005957e+02  1.2100202273208093e+02  1.1870730106625987e+02  1.1515293158749952e+02  1.1112674051721028e+02  1.0886661709974402e+02  1.0734371387959027e+02  1.0549360084780589e+02  1.0404432580297562e+02  1.0285659649211773e+02  1.0187833945271630e+02  1.0145762900201098e+02  1.0122022951445065e+02  1.0110493564178211e+02  1.0105699549858876e+02  1.0107475856872401e+02  1.0112648205165016e+02  1.0113601872012670e+02  1.0119314603933337e+02  1.0133785364872838e+02  1.0153942033793722e+02  1.0175291135916484e+02  1.0191483030947848e+02  1.0198052912151554e+02  1.0197672384312177e+02  1.5612582127871246e+02  1.5611802364297452e+02  1.5610148774156087e+02  1.5606325112056044e+02  1.5599667816622886e+02  1.5590151014938397e+02  1.5578119809304124e+02  1.5572699704885727e+02  1.5560517873861966e+02  1.5521492472287389e+02  1.5452169925683103e+02  1.5306212268583496e+02  1.5058966661665133e+02  1.4872937659420782e+02  1.4724881513457177e+02  1.4567538695169242e+02  1.4339436640237818e+02  1.4151660386627171e+02  1.3985223202134708e+02  1.3668388314464363e+02  1.3346142851762815e+02  1.3023593610000970e+02  1.2794138060136380e+02  1.2524042819336566e+02  1.2343897301646685e+02  1.2090943806947089e+02  1.1883974854274076e+02  1.1587292238469806e+02  1.1196877943586775e+02  1.0959319712998985e+02  1.0808130113409466e+02  1.0644414613929608e+02  1.0501384728474832e+02  1.0421262779636626e+02  1.0362178250610746e+02  1.0323687853527279e+02  1.0307270858082067e+02  1.0301735495888792e+02  1.0303357166223064e+02  1.0312900402220284e+02  1.0341154391644241e+02  1.0392557161092395e+02  1.0437644823854620e+02  1.0460363611125422e+02  1.0460269799423139e+02  1.0443710532038459e+02  1.0423550968733264e+02  1.0412621483908183e+02  1.0411331884893204e+02  1.5451718006771259e+02  1.5452239985328040e+02  1.5453153994495943e+02  1.5451072858219732e+02  1.5443458798449899e+02  1.5430830123247003e+02  1.5408581433550626e+02  1.5364474475459380e+02  1.5307314302073667e+02  1.5252403388534802e+02  1.5147856321491722e+02  1.4989203845706996e+02  1.4820129457430176e+02  1.4665648996021653e+02  1.4514656239099708e+02  1.4357918669477442e+02  1.4202120842003535e+02  1.4022458420891192e+02  1.3832357734558917e+02  1.3527310742799435e+02  1.3276475551779961e+02  1.2988951475291103e+02  1.2740761387257241e+02  1.2486324601461928e+02  1.2311203847316196e+02  1.2069517924059353e+02  1.1884299051511229e+02  1.1633143670308634e+02  1.1310400118425024e+02  1.1041662837069116e+02  1.0894014446909334e+02  1.0748966486312501e+02  1.0608654897416886e+02  1.0527131544656588e+02  1.0484278247393300e+02  1.0451796345330767e+02  1.0436778569257996e+02  1.0435921814541773e+02  1.0446126012893866e+02  1.0466202564682999e+02  1.0503027708479607e+02  1.0556634806646412e+02  1.0597079877782267e+02  1.0620589577117164e+02  1.0635222921277933e+02  1.0644416042458172e+02  1.0648669154284597e+02  1.0647833688468160e+02  1.0648587706378339e+02  1.5223471658488944e+02  1.5223920320998511e+02  1.5224930324556061e+02  1.5223301442213551e+02  1.5218944086191630e+02  1.5206774458826277e+02  1.5166473604007888e+02  1.5103366115549008e+02  1.5045901868115885e+02  1.4994444019178158e+02  1.4895996718667220e+02  1.4744738638822784e+02  1.4606891391425802e+02  1.4452204357006582e+02  1.4290787235478578e+02  1.4134051049456741e+02  1.3933676217044470e+02  1.3762169256234876e+02  1.3608376945171625e+02  1.3371808574460027e+02  1.3156434950377673e+02  1.2913830273261902e+02  1.2673062809271511e+02  1.2444936198030049e+02  1.2267166779538859e+02  1.2041352008016996e+02  1.1873414709245007e+02  1.1666667199600457e+02  1.1374002336327749e+02  1.1148608594036176e+02  1.0991895487492668e+02  1.0874062200402442e+02  1.0744987318296373e+02  1.0699237216599329e+02  1.0664329599710349e+02  1.0644920156412130e+02  1.0637016165214288e+02  1.0642667251288265e+02  1.0660975130447747e+02  1.0687715163855819e+02  1.0709891974288536e+02  1.0719683961652758e+02  1.0742589663656547e+02  1.0768894481884213e+02  1.0791809896944703e+02  1.0810980253096298e+02  1.0827399689178718e+02  1.0836746886664194e+02  1.0837636517542406e+02  1.5046442614362459e+02  1.5046434739998554e+02  1.5047788652481529e+02  1.5044159695656623e+02  1.5028418388261673e+02  1.4977799707788796e+02  1.4889073484537357e+02  1.4808304364952258e+02  1.4742142445390641e+02  1.4680842056841931e+02  1.4614813520494764e+02  1.4531786192803366e+02  1.4418138638692287e+02  1.4279771149637617e+02  1.4134864278681263e+02  1.3984601745196605e+02  1.3779645569593274e+02  1.3584076080814640e+02  1.3415706880902991e+02  1.3215468938488459e+02  1.3021730546734864e+02  1.2796143819182930e+02  1.2585165459739805e+02  1.2390480026339509e+02  1.2211814534303079e+02  1.2010751312302889e+02  1.1858742870550249e+02  1.1696608818632839e+02  1.1417227563661767e+02  1.1225579470704075e+02  1.1083067416117274e+02  1.0999656363524474e+02  1.0902621285022967e+02  1.0839267153579293e+02  1.0808840823880563e+02  1.0795218727709960e+02  1.0793059926492683e+02  1.0802272676962174e+02  1.0821483238271509e+02  1.0850582074323269e+02  1.0889004074180438e+02  1.0930805306163927e+02  1.0966381770426455e+02  1.0995675552628354e+02  1.1017863074343123e+02  1.1034229808536563e+02  1.1043431635071651e+02  1.1045115347376806e+02  1.1043914915189664e+02  1.4834136313123028e+02  1.4835104189516804e+02  1.4836630302616604e+02  1.4830980598873401e+02  1.4804358414791025e+02  1.4740162100701556e+02  1.4673101386281138e+02  1.4623244464597298e+02  1.4568035327467132e+02  1.4488775485774880e+02  1.4374965846307566e+02  1.4266386660972481e+02  1.4180999854501556e+02  1.4037203921577236e+02  1.3927485248918003e+02  1.3808088088923446e+02  1.3620469508690368e+02  1.3451442462573786e+02  1.3271597619330618e+02  1.3044815988079426e+02  1.2842021362243432e+02  1.2636982131739364e+02  1.2473674254362678e+02  1.2315245826990335e+02  1.2158047930569840e+02  1.1981451776251156e+02  1.1845366302280087e+02  1.1712316332679198e+02  1.1481603211485965e+02  1.1329884014042524e+02  1.1173614430246052e+02  1.1121479799908919e+02  1.1059690124809890e+02  1.1015183698443242e+02  1.0991896659326179e+02  1.0986052521043260e+02  1.0991462555898836e+02  1.1005989911673970e+02  1.1027127640885448e+02  1.1056000837012758e+02  1.1096737113627432e+02  1.1138506859228509e+02  1.1163148959944553e+02  1.1172660242627552e+02  1.1188842860034757e+02  1.1202344