<?xml version="1.0"?>
<VTKFile type="UnstructuredGrid"  version="0.1"  >
<UnstructuredGrid>
<Piece  NumberOfPoints="2401" NumberOfCells="4608">
<Points>
<DataArray  type="Float64"  NumberOfComponents="3"  format="ascii">0 0 0  0.001070538380698371 0 0  0.004277569313095364 0 0  0.009607359798386061 0 0  0.01703708685546806 0 0  0.02653493525245065 0 0  0.03806023374436157 0 0  0.05156362923366253 0 0  0.06698729810778931 0 0  0.08426519384873815 0 0  0.1033233298543955 0 0  0.1240800962605269 0 0  0.1464466094067445 0 0  0.1703270924499866 0 0  0.1956192854956637 0 0  0.2222148834902257 0 0  0.2500000000000299 0 0  0.2788556548905322 0 0  0.308658283817491 0 0  0.339280267348458 0 0  0.3705904774487813 0 0  0.4024548389919803 0 0  0.4347369038900211 0 0  0.467298435384978 0 0  0.5000000000000517 0 0  0.5327015646151253 0 0  0.5652630961100813 0 0  0.5975451610081212 0 0  0.6294095225513188 0 0  0.6607197326516399 0 0  0.6913417161826045 0 0  0.7211443451095605 0 0  0.7500000000000597 0 0  0.7777851165098603 0 0  0.8043807145044185 0 0  0.829672907550091 0 0  0.8535533905933287 0 0  0.8759199037395413 0 0  0.8966766701456674 0 0  0.9157348061513193 0 0  0.9330127018922625 0 0  0.9484363707663832 0 0  0.961939766255678 0 0  0.9734650647475827 0 0  0.9829629131445586 0 0  0.9903926402016341 0 0  0.9957224306869181 0 0  0.9989294616193084 0 0  1 0 0  0 0.02083333333333333 0  0.001070538380698371 0.02083333333333333 0  0.004277569313095364 0.02083333333333333 0  0.009607359798386061 0.02083333333333333 0  0.01703708685546806 0.02083333333333333 0  0.02653493525245065 0.02083333333333333 0  0.03806023374436157 0.02083333333333333 0  0.05156362923366253 0.02083333333333333 0  0.06698729810778931 0.02083333333333333 0  0.08426519384873815 0.02083333333333333 0  0.1033233298543955 0.02083333333333333 0  0.1240800962605269 0.02083333333333333 0  0.1464466094067445 0.02083333333333333 0  0.1703270924499866 0.02083333333333333 0  0.1956192854956637 0.02083333333333333 0  0.2222148834902257 0.02083333333333333 0  0.2500000000000299 0.02083333333333333 0  0.2788556548905322 0.02083333333333333 0  0.308658283817491 0.02083333333333333 0  0.339280267348458 0.02083333333333333 0  0.3705904774487813 0.02083333333333333 0  0.4024548389919803 0.02083333333333333 0  0.4347369038900211 0.02083333333333333 0  0.467298435384978 0.02083333333333333 0  0.5000000000000517 0.02083333333333333 0  0.5327015646151253 0.02083333333333333 0  0.5652630961100813 0.02083333333333333 0  0.5975451610081212 0.02083333333333333 0  0.6294095225513188 0.02083333333333333 0  0.6607197326516399 0.02083333333333333 0  0.6913417161826045 0.02083333333333333 0  0.7211443451095605 0.02083333333333333 0  0.7500000000000597 0.02083333333333333 0  0.7777851165098603 0.02083333333333333 0  0.8043807145044185 0.02083333333333333 0  0.829672907550091 0.02083333333333333 0  0.8535533905933287 0.02083333333333333 0  0.8759199037395413 0.02083333333333333 0  0.8966766701456674 0.02083333333333333 0  0.9157348061513193 0.02083333333333333 0  0.9330127018922625 0.02083333333333333 0  0.9484363707663832 0.02083333333333333 0  0.961939766255678 0.02083333333333333 0  0.9734650647475827 0.02083333333333333 0  0.9829629131445586 0.02083333333333333 0  0.9903926402016341 0.02083333333333333 0  0.9957224306869181 0.02083333333333333 0  0.9989294616193084 0.02083333333333333 0  1 0.02083333333333333 0  0 0.04166666666666666 0  0.001070538380698371 0.04166666666666666 0  0.004277569313095364 0.04166666666666666 0  0.009607359798386061 0.04166666666666666 0  0.01703708685546806 0.04166666666666666 0  0.02653493525245065 0.04166666666666666 0  0.03806023374436157 0.04166666666666666 0  0.05156362923366253 0.04166666666666666 0  0.06698729810778931 0.04166666666666666 0  0.08426519384873815 0.04166666666666666 0  0.1033233298543955 0.04166666666666666 0  0.1240800962605269 0.04166666666666666 0  0.1464466094067445 0.04166666666666666 0  0.1703270924499866 0.04166666666666666 0  0.1956192854956637 0.04166666666666666 0  0.2222148834902257 0.04166666666666666 0  0.2500000000000299 0.04166666666666666 0  0.2788556548905322 0.04166666666666666 0  0.308658283817491 0.04166666666666666 0  0.339280267348458 0.04166666666666666 0  0.3705904774487813 0.04166666666666666 0  0.4024548389919803 0.04166666666666666 0  0.4347369038900211 0.04166666666666666 0  0.467298435384978 0.04166666666666666 0  0.5000000000000517 0.04166666666666666 0  0.5327015646151253 0.04166666666666666 0  0.5652630961100813 0.04166666666666666 0  0.5975451610081212 0.04166666666666666 0  0.6294095225513188 0.04166666666666666 0  0.6607197326516399 0.04166666666666666 0  0.6913417161826045 0.04166666666666666 0  0.7211443451095605 0.04166666666666666 0  0.7500000000000597 0.04166666666666666 0  0.7777851165098603 0.04166666666666666 0  0.8043807145044185 0.04166666666666666 0  0.829672907550091 0.04166666666666666 0  0.8535533905933287 0.04166666666666666 0  0.8759199037395413 0.04166666666666666 0  0.8966766701456674 0.04166666666666666 0  0.9157348061513193 0.04166666666666666 0  0.9330127018922625 0.04166666666666666 0  0.9484363707663832 0.04166666666666666 0  0.961939766255678 0.04166666666666666 0  0.9734650647475827 0.04166666666666666 0  0.9829629131445586 0.04166666666666666 0  0.9903926402016341 0.04166666666666666 0  0.9957224306869181 0.04166666666666666 0  0.9989294616193084 0.04166666666666666 0  1 0.04166666666666666 0  0 0.0625 0  0.001070538380698371 0.0625 0  0.004277569313095364 0.0625 0  0.009607359798386061 0.0625 0  0.01703708685546806 0.0625 0  0.02653493525245065 0.0625 0  0.03806023374436157 0.0625 0  0.05156362923366253 0.0625 0  0.06698729810778931 0.0625 0  0.08426519384873815 0.0625 0  0.1033233298543955 0.0625 0  0.1240800962605269 0.0625 0  0.1464466094067445 0.0625 0  0.1703270924499866 0.0625 0  0.1956192854956637 0.0625 0  0.2222148834902257 0.0625 0  0.2500000000000299 0.0625 0  0.2788556548905322 0.0625 0  0.308658283817491 0.0625 0  0.339280267348458 0.0625 0  0.3705904774487813 0.0625 0  0.4024548389919803 0.0625 0  0.4347369038900211 0.0625 0  0.467298435384978 0.0625 0  0.5000000000000517 0.0625 0  0.5327015646151253 0.0625 0  0.5652630961100813 0.0625 0  0.5975451610081212 0.0625 0  0.6294095225513188 0.0625 0  0.6607197326516399 0.0625 0  0.6913417161826045 0.0625 0  0.7211443451095605 0.0625 0  0.7500000000000597 0.0625 0  0.7777851165098603 0.0625 0  0.8043807145044185 0.0625 0  0.829672907550091 0.0625 0  0.8535533905933287 0.0625 0  0.8759199037395413 0.0625 0  0.8966766701456674 0.0625 0  0.9157348061513193 0.0625 0  0.9330127018922625 0.0625 0  0.9484363707663832 0.0625 0  0.961939766255678 0.0625 0  0.9734650647475827 0.0625 0  0.9829629131445586 0.0625 0  0.9903926402016341 0.0625 0  0.9957224306869181 0.0625 0  0.9989294616193084 0.0625 0  1 0.0625 0  0 0.08333333333333333 0  0.001070538380698371 0.08333333333333333 0  0.004277569313095364 0.08333333333333333 0  0.009607359798386061 0.08333333333333333 0  0.01703708685546806 0.08333333333333333 0  0.02653493525245065 0.08333333333333333 0  0.03806023374436157 0.08333333333333333 0  0.05156362923366253 0.08333333333333333 0  0.06698729810778931 0.08333333333333333 0  0.08426519384873815 0.08333333333333333 0  0.1033233298543955 0.08333333333333333 0  0.1240800962605269 0.08333333333333333 0  0.1464466094067445 0.08333333333333333 0  0.1703270924499866 0.08333333333333333 0  0.1956192854956637 0.08333333333333333 0  0.2222148834902257 0.08333333333333333 0  0.2500000000000299 0.08333333333333333 0  0.2788556548905322 0.08333333333333333 0  0.308658283817491 0.08333333333333333 0  0.339280267348458 0.08333333333333333 0  0.3705904774487813 0.08333333333333333 0  0.4024548389919803 0.08333333333333333 0  0.4347369038900211 0.08333333333333333 0  0.467298435384978 0.08333333333333333 0  0.5000000000000517 0.08333333333333333 0  0.5327015646151253 0.08333333333333333 0  0.5652630961100813 0.08333333333333333 0  0.5975451610081212 0.08333333333333333 0  0.6294095225513188 0.08333333333333333 0  0.6607197326516399 0.08333333333333333 0  0.6913417161826045 0.08333333333333333 0  0.7211443451095605 0.08333333333333333 0  0.7500000000000597 0.08333333333333333 0  0.7777851165098603 0.08333333333333333 0  0.8043807145044185 0.08333333333333333 0  0.829672907550091 0.08333333333333333 0  0.8535533905933287 0.08333333333333333 0  0.8759199037395413 0.08333333333333333 0  0.8966766701456674 0.08333333333333333 0  0.9157348061513193 0.08333333333333333 0  0.9330127018922625 0.08333333333333333 0  0.9484363707663832 0.08333333333333333 0  0.961939766255678 0.08333333333333333 0  0.9734650647475827 0.08333333333333333 0  0.9829629131445586 0.08333333333333333 0  0.9903926402016341 0.08333333333333333 0  0.9957224306869181 0.08333333333333333 0  0.9989294616193084 0.08333333333333333 0  1 0.08333333333333333 0  0 0.1041666666666667 0  0.001070538380698371 0.1041666666666667 0  0.004277569313095364 0.1041666666666667 0  0.009607359798386061 0.1041666666666667 0  0.01703708685546806 0.1041666666666667 0  0.02653493525245065 0.1041666666666667 0  0.03806023374436157 0.1041666666666667 0  0.05156362923366253 0.1041666666666667 0  0.06698729810778931 0.1041666666666667 0  0.08426519384873815 0.1041666666666667 0  0.1033233298543955 0.1041666666666667 0  0.1240800962605269 0.1041666666666667 0  0.1464466094067445 0.1041666666666667 0  0.1703270924499866 0.1041666666666667 0  0.1956192854956637 0.1041666666666667 0  0.2222148834902257 0.1041666666666667 0  0.2500000000000299 0.1041666666666667 0  0.2788556548905322 0.1041666666666667 0  0.308658283817491 0.1041666666666667 0  0.339280267348458 0.1041666666666667 0  0.3705904774487813 0.1041666666666667 0  0.4024548389919803 0.1041666666666667 0  0.4347369038900211 0.1041666666666667 0  0.467298435384978 0.1041666666666667 0  0.5000000000000517 0.1041666666666667 0  0.5327015646151253 0.1041666666666667 0  0.5652630961100813 0.1041666666666667 0  0.5975451610081212 0.1041666666666667 0  0.62
[...]
<PointData  Scalars="f_2078518"> 
<DataArray  type="Float64"  Name="f_2078518"  format="ascii">8.2745293638372289e+01  8.2745304889610850e+01  8.2761174983201926e+01  8.2815205845003049e+01  8.2929600425376762e+01  8.3093727949879792e+01  8.3392165258345514e+01  8.3849117028580565e+01  8.4486103166054491e+01  8.5496623235991379e+01  8.6602878829829407e+01  8.7997109264641693e+01  8.9569830217523744e+01  9.1310334288991967e+01  9.2977793322610395e+01  9.5206696903503868e+01  9.7616880748908358e+01  9.9965394306677368e+01  1.0253651723540794e+02  1.0564656620706218e+02  1.0833532138208959e+02  1.1075792156754079e+02  1.1325839790297439e+02  1.1611925387059526e+02  1.1919833703719272e+02  1.2276355926032157e+02  1.2624675407489643e+02  1.2868880943564804e+02  1.3186841780544063e+02  1.3535564305027978e+02  1.3838615325795399e+02  1.4071816900137833e+02  1.4287130185784372e+02  1.4529024875978934e+02  1.4687080357250446e+02  1.4855998004302504e+02  1.5017872307912177e+02  1.5137076347947288e+02  1.5233811369433587e+02  1.5307127048712761e+02  1.5353598849849658e+02  1.5386041465744145e+02  1.5404439997559663e+02  1.5412917774661037e+02  1.5415302649577023e+02  1.5415031066741341e+02  1.5413930763895388e+02  1.5413211465061806e+02  1.5412913417088276e+02  8.2616025132814059e+01  8.2618057874855324e+01  8.2621387719668860e+01  8.2655624097541192e+01  8.2756188086070637e+01  8.2926683328144023e+01  8.3264535277524118e+01  8.3657396419668245e+01  8.4175204182754598e+01  8.5363502191219709e+01  8.6422570648485461e+01  8.7796764313836377e+01  8.9380374068553479e+01  9.1248442193691631e+01  9.2823402024136229e+01  9.4942066127439986e+01  9.7530696919968378e+01  9.9866521880490566e+01  1.0213961040910412e+02  1.0537345832072356e+02  1.0820692505940269e+02  1.1052390030485488e+02  1.1305704399523033e+02  1.1600717770774354e+02  1.1900619526365921e+02  1.2249220509405414e+02  1.2620058808234494e+02  1.2860230797375604e+02  1.3162239776536865e+02  1.3526184054291775e+02  1.3853174734743808e+02  1.4081742076473003e+02  1.4271597445932284e+02  1.4529555631932715e+02  1.4676166428812996e+02  1.4856837614302020e+02  1.5032636578750385e+02  1.5149400311922383e+02  1.5259753183658296e+02  1.5326508555576683e+02  1.5374562185778299e+02  1.5404597195696402e+02  1.5418116960352103e+02  1.5422074440108534e+02  1.5420392946052201e+02  1.5414937221307028e+02  1.5408167370352186e+02  1.5405622113966479e+02  1.5405718178298824e+02  8.2548037735609100e+01  8.2546029374858094e+01  8.2541996629456577e+01  8.2546840422694828e+01  8.2573097352752157e+01  8.2690109309418247e+01  8.2972707209126824e+01  8.3538670791644705e+01  8.3935219045052250e+01  8.4539713282479937e+01  8.6168437835724546e+01  8.7486989027547637e+01  8.9155968226505394e+01  9.0631803826677341e+01  9.2668277676760198e+01  9.4624204609697159e+01  9.6851809105851615e+01  9.9688504633904515e+01  1.0151403905989832e+02  1.0387526106638981e+02  1.0797739893327767e+02  1.1011707927854735e+02  1.1232651878112939e+02  1.1562221137299608e+02  1.1852865856918648e+02  1.2180604623945715e+02  1.2578798631882734e+02  1.2828898972487391e+02  1.3087728609377228e+02  1.3497583702722005e+02  1.3849578963136079e+02  1.4080044931105417e+02  1.4262300373876712e+02  1.4522328163936621e+02  1.4668178855397849e+02  1.4822970017065697e+02  1.5057084700533386e+02  1.5176055578121003e+02  1.5290017598564171e+02  1.5344329491387640e+02  1.5384357018414028e+02  1.5412797318609279e+02  1.5414794856891558e+02  1.5410087394630429e+02  1.5401054799546236e+02  1.5390139269257580e+02  1.5380973021365085e+02  1.5378307683652662e+02  1.5378360324189913e+02  8.2653624434974418e+01  8.2656665977743998e+01  8.2657842432497191e+01  8.2649463844543007e+01  8.2627929979874892e+01  8.2633262596118357e+01  8.2887442742203390e+01  8.3409026517873642e+01  8.3985158095194052e+01  8.4474597367679408e+01  8.5339168284524391e+01  8.7289235777595351e+01  8.8999999877581459e+01  9.0490451476785609e+01  9.1879059685636392e+01  9.4315050634367537e+01  9.6754948700828464e+01  9.9375483754758079e+01  1.0115621209580155e+02  1.0298414807319345e+02  1.0756924859506958e+02  1.0970838791189178e+02  1.1173405202875641e+02  1.1514211599779266e+02  1.1812914937984785e+02  1.2133989485655202e+02  1.2489113582655912e+02  1.2796974786908987e+02  1.3044743093053557e+02  1.3472069016085453e+02  1.3767120904696324e+02  1.4052072255752583e+02  1.4254478834916694e+02  1.4518258784618195e+02  1.4665950410897597e+02  1.4805006156100134e+02  1.5053413552422097e+02  1.5174124745108597e+02  1.5261817725380840e+02  1.5327724077055532e+02  1.5359520263054199e+02  1.5385994843905408e+02  1.5385968818795740e+02  1.5372828480092502e+02  1.5354672306750638e+02  1.5339582610962353e+02  1.5331091409977000e+02  1.5328808868782386e+02  1.5328809417663123e+02  8.2920022981374430e+01  8.2916560346173725e+01  8.2888918221916541e+01  8.2858878960240830e+01  8.2859286515802879e+01  8.2953977919653198e+01  8.3140565889051516e+01  8.3543156153101648e+01  8.4111146206602683e+01  8.4676361724737390e+01  8.5416394250648040e+01  8.7141102440660262e+01  8.9094314308318019e+01  9.0537859048061009e+01  9.1608793256847989e+01  9.3495541203061748e+01  9.6487293620422932e+01  9.9077769416483179e+01  1.0084696134868460e+02  1.0254430455473620e+02  1.0694696134028585e+02  1.0918844167661017e+02  1.1119947847125597e+02  1.1433152434719547e+02  1.1794586919690100e+02  1.2102574180731415e+02  1.2366214511750287e+02  1.2752406578274474e+02  1.3023811614624026e+02  1.3455177912512241e+02  1.3686460772191845e+02  1.3961820759207686e+02  1.4244172861555492e+02  1.4508881491631618e+02  1.4661923605969909e+02  1.4796203571938796e+02  1.5013469372371833e+02  1.5116596407808552e+02  1.5195996686124701e+02  1.5250490644704536e+02  1.5287511163564372e+02  1.5273057382908291e+02  1.5247991837586474e+02  1.5231244554955714e+02  1.5223087074502510e+02  1.5221056957851087e+02  1.5222173520298270e+02  1.5224236234889111e+02  1.5225045960474728e+02  8.3769444628883448e+01  8.3768619812109264e+01  8.3780601795698914e+01  8.3775764102521094e+01  8.3724817313410696e+01  8.3630493733905865e+01  8.3660028416409844e+01  8.3869790516162880e+01  8.4559644317158671e+01  8.5222135383817744e+01  8.5941782986940495e+01  8.7158721479478814e+01  8.9448825309626002e+01  9.0691744102759344e+01  9.1589867337763820e+01  9.2889949183478564e+01  9.6280684550444363e+01  9.8511273052265096e+01  1.0049658170416038e+02  1.0233572627834869e+02  1.0616018216742327e+02  1.0847454775418845e+02  1.1064286561726205e+02  1.1318407035856086e+02  1.1779794729162116e+02  1.2056668544177585e+02  1.2286651241635447e+02  1.2651017561309342e+02  1.3015906968744443e+02  1.3400627552607233e+02  1.3636753858261216e+02  1.3849083372739275e+02  1.4188340504823404e+02  1.4462863834755615e+02  1.4647452464479758e+02  1.4778580876798435e+02  1.4954546232808116e+02  1.5027450116023078e+02  1.5085755948214089e+02  1.5118986688219013e+02  1.5139327291301319e+02  1.5147267767087473e+02  1.5131718905747101e+02  1.5118466867073471e+02  1.5109029691328428e+02  1.5102992980935278e+02  1.5099502658388474e+02  1.5097887149554288e+02  1.5097057534486854e+02  8.4596098493491525e+01  8.4598989549481033e+01  8.4599257836092590e+01  8.4591072133344440e+01  8.4567099481570381e+01  8.4513551214245027e+01  8.4431175725781088e+01  8.4563605307352788e+01  8.5203172331793112e+01  8.5880481113841967e+01  8.6466950244879300e+01  8.7272892908914798e+01  8.9788603339790953e+01  9.0870732441255470e+01  9.1677233642579282e+01  9.2662990325966831e+01  9.6573909238721384e+01  9.8241358426287093e+01  9.9813310755222730e+01  1.0190428276213474e+02  1.0580442467671269e+02  1.0770806560318329e+02  1.0977837876869769e+02  1.1221931849726894e+02  1.1674046582497483e+02  1.1996022182635338e+02  1.2230815824870309e+02  1.2537724289973835e+02  1.2972994057234905e+02  1.3295728468669620e+02  1.3578008764098499e+02  1.3774622670073342e+02  1.4092705314232012e+02  1.4344769824656873e+02  1.4598619513077168e+02  1.4724534446037697e+02  1.4832245436243582e+02  1.4910450455221385e+02  1.4975017343407833e+02  1.5018455156289482e+02  1.5030834233653999e+02  1.5037547097968499e+02  1.5028046676381572e+02  1.5011631950633998e+02  1.4999750979211822e+02  1.4992908665691911e+02  1.4990038367316998e+02  1.4989669978577771e+02  1.4990052347843141e+02  8.5372587945523819e+01  8.5372492181786143e+01  8.5362297799630582e+01  8.5346046880282429e+01  8.5333623806561107e+01  8.5338382249909614e+01  8.5352717890170325e+01  8.5514066080064453e+01  8.6014569472739012e+01  8.6532744568484276e+01  8.7002393926668304e+01  8.7649289940548101e+01  9.0065901018012298e+01  9.1085858926019782e+01  9.1844013750677902e+01  9.2728570297502358e+01  9.6868772209096733e+01  9.8235354002403938e+01  9.9571201512071738e+01  1.0136187439913093e+02  1.0576862018770807e+02  1.0746160595528575e+02  1.0908433301153312e+02  1.1158710690874426e+02  1.1482717293484636e+02  1.1890612543729493e+02  1.2159680634063051e+02  1.2443094289742484e+02  1.2916229304705337e+02  1.3145067468364925e+02  1.3451444632345493e+02  1.3700210196475462e+02  1.3971344468395139e+02  1.4220257156083034e+02  1.4444073763288154e+02  1.4541302741688639e+02  1.4646486920292827e+02  1.4731544471056284e+02  1.4789481467893134e+02  1.4862215462441517e+02  1.4912690561185769e+02  1.4895780249729683e+02  1.4849558086628116e+02  1.4825431426975638e+02  1.4813650878315357e+02  1.4807379097648584e+02  1.4804861275278867e+02  1.4804708178011441e+02  1.4805143923561081e+02  8.6507171363210603e+01  8.6495749615767593e+01  8.6486114278393444e+01  8.6472066889585719e+01  8.6456667629988061e+01  8.6431381360466347e+01  8.6452652684454250e+01  8.6676660644618849e+01  8.7024881537932430e+01  8.7335303237474250e+01  8.7693638935960323e+01  8.8303076565743510e+01  9.0365806470007101e+01  9.1351315070347340e+01  9.2098836304494924e+01  9.3028653680852628e+01  9.7010858276716036e+01  9.8269797397826522e+01  9.9468718515343241e+01  1.0113127795710879e+02  1.0571511676396196e+02  1.0734615246944865e+02  1.0884629831107458e+02  1.1123433019195978e+02  1.1364082071376063e+02  1.1690758516423217e+02  1.2060812339636445e+02  1.2360053771156038e+02  1.2809421375338118e+02  1.3048252272017874e+02  1.3280711189598753e+02  1.3588239743969947e+02  1.3833599927925482e+02  1.4099004749187921e+02  1.4287321945628847e+02  1.4385190215075758e+02  1.4456152880869971e+02  1.4515260490459372e+02  1.4572146771270269e+02  1.4619735136142339e+02  1.4644580363489197e+02  1.4637307109382843e+02  1.4655194181772757e+02  1.4667880843196050e+02  1.4665234813797946e+02  1.4660151830624565e+02  1.4655974695548022e+02  1.4652951449630388e+02  1.4651893747247135e+02  8.7212698177896456e+01  8.7236295221084902e+01  8.7251955747437449e+01  8.7260539214911077e+01  8.7265468690754147e+01  8.7297743857564683e+01  8.7494444710017504e+01  8.7843568270003161e+01  8.8130605660378393e+01  8.8364860781301218e+01  8.8664481028919568e+01  8.9197462262413552e+01  9.0715040967963716e+01  9.1694415088580485e+01  9.2453231804189414e+01  9.3511782703682783e+01  9.7101083808523626e+01  9.8328133987742447e+01  9.9455817608906941e+01  1.0111316719873845e+02  1.0554466062794151e+02  1.0725874430410796e+02  1.0876298952862453e+02  1.1106224526860207e+02  1.1297124808350175e+02  1.1582378014846094e+02  1.1887965872594535e+02  1.2287794493367466e+02  1.2717267077138385e+02  1.2957342511882482e+02  1.3153216374835509e+02  1.3438970972013161e+02  1.3689340294976776e+02  1.3960420571986919e+02  1.4168368376351063e+02  1.4262999264574162e+02  1.4325118430785594e+02  1.4374814795483533e+02  1.4410212388636211e+02  1.4434932627268208e+02  1.4452958802069753e+02  1.4455763553807031e+02  1.4451725112838395e+02  1.4450187454604591e+02  1.4451508242575062e+02  1.4452118741883436e+02  1.4451797069041351e+02  1.4452567635464720e+02  1.4453736935445130e+02  8.8349852486443993e+01  8.8321126134182279e+01  8.8246590418600221e+01  8.8187412752418936e+01  8.8199356703961143e+01  8.8346687273137405e+01  8.8673487503692172e+01  8.8933318262938897e+01  8.9125829597762291e+01  8.9346454652758680e+01  8.9658899600400744e+01  9.0046750168015080e+01  9.1162733068070253e+01  9.2192611426442838e+01  9.2970655624870204e+01  9.4207336652545095e+01  9.7198685818738397e+01  9.8416311072700935e+01  9.9512390549552109e+01  1.0127335167213765e+02  1.0525151081461588e+02  1.0717129182069364e+02  1.0871429588555310e+02  1.1092498637869413e+02  1.1260431865562347e+02  1.1508927510116303e+02  1.1746243712052730e+02  1.2185698098825357e+02  1.2611205030709446e+02  1.2866862203730699e+02  1.3049554519162913e+02  1.3315410910929589e+02  1.3532034858918809e+02  1.3766278400412742e+02  1.3970838044409746e+02  1.4056906706521610e+02  1.4116750785919439e+02  1.4161852632260906e+02  1.4197609413471918e+02  1.4230017989745542e+02  1.4272693626626051e+02  1.4308305822960776e+02  1.4320408757115533e+02  1.4320554751030585e+02  1.4318071816974080e+02  1.4315089956854314e+02  1.4312514836399950e+02  1.4310797912220715e+02  1.4309750211993307e+02  9.0736573720923488e+01  9.0747532236949908e+01  9.0806814329759774e+01  9.0870968174118218e+01  9.0883223187547287e+01  9.0767273765897883e+01  9.0453694543244396e+01  9.0323047636494906e+01  9.0416751433362194e+01  9.0583483906875173e+01  9.0768255893391697e+01  9.1194076099258183e+01  9.2229698729223742e+01  9.3169396535696833e+01  9.3965584295315395e+01  9.5177817818079120e+01  9.7343702909009991e+01  9.8576101773689871e+01  9.9651144318558366e+01  1.0160111506920074e+02  1.0481265699543961e+02  1.0707903753911539e+02  1.0865967602023009e+02  1.1079971086665903e+02  1.1234700049692540e+02  1.1459476556898808e+02  1.1663406292157835e+02  1.2019854463119771e+02  1.2480136099008931e+02  1.2757357417668375e+02  1.2944439120004404e+02  1.3194112535697596e+02  1.3406263207402284e+02  1.3596023653891575e+02  1.3780482757169511e+02  1.3878815504404065e+02  1.3944958763933667e+02  1.3992470341251538e+02  1.4031049806071491e+02  1.4063314224283533e+02  1.4097905399848443e+02  1.4141713250324318e+02  1.4169747471266953e+02  1.4177464810742342e+02  1.4171954333238753e+02  1.4159225028749742e+02  1.4147243710570379e+02  1.4141724545233214e+02  1.4142029620296921e+02  9.2237174769187376e+01  9.2242915172882618e+01  9.2245720883364498e+01  9.2247127631566642e+01  9.2242089372539283e+01  9.2217700620121562e+01  9.2147550145474938e+01  9.1916403972723927e+01  9.1679406514491703e+01  9.1719031576445474e+01  9.1963270054048721e+01  9.2622878220295476e+01  9.3839004772882262e+01  9.4723044669605287e+01  9.5483573585786331e+01  9.6323492459800264e+01  9.7696439684451718e+01  9.8893518579787639e+01  9.9951853693106912e+01  1.0201873158248198e+02  1.0431045093071572e+02  1.0689172452320929e+02  1.0859130795303943e+02  1.1067429826339517e+02  1.1213505339938568e+02  1.1420122400276972e+02  1.1596173257867552e+02  1.1880572617462489e+02  1.2325695275818512e+02  1.2627010708794890e+02  1.2821399839085896e+02  1.3052924247657162e+02  1.3278823526032946e+02  1.3432035283483151e+02  1.3565551109112880e+02  1.3663901856898491e+02  1.3725703071856108e+02  1.3770632582946124e+02  1.3806421951735035e+02  1.3836055114815250e+02  1.3853830796823385e+02  1.3849707223585034e+02  1.3840398082099483e+02  1.3842968582873939e+02  1.3863660605225851e+02  1.3895749379383136e+02  1.3923493334658957e+02  1.3935238387912597e+02  1.3936189683033891e+02  9.3560886576219858e+01  9.3554163984024328e+01  9.3537579936625264e+01  9.3525590752601417e+01  9.3525293967075498e+01  9.3522473083052603e+01  9.3516070203580782e+01  9.3588350183712876e+01  9.3669105534824610e+01  9.3715359606179589e+01  9.4094721301170310e+01  9.4752693496232396e+01  9.5403807654249675e+01  9.6026468537288324e+01  9.6730609193740392e+01  9.7529562979974742e+01  9.8353367642251854e+01  9.9435657114138081e+01  1.0055086071745362e+02  1.0241775361891474e+02  1.0417667766500466e+02  1.0649118260578653e+02  1.0846029597734491e+02  1.1050985611975676e+02  1.1194312000910560e+02  1.1388260679564013e+02  1.1539577997060738e+02  1.1775606791824961e+02  1.2137152726954463e+02  1.2487103347385282e+02  1.2685820543086162e+02  1.2902405527088993e+02  1.3142341785519025e+02  1.3309841745474853e+02  1.3422322551035245e+02  1.3515144802484298e+02  1.3578646546783810e+02  1.3621703757658761e+02  1.3651230891837446e+02  1.3673478888180134e+02  1.3688319000605236e+02  1.3684090316472620e+02  1.3675817357775034e+02  1.3673343314163583e+02  1.3674247203776284e+02  1.3677480843701724e+02  1.3683324331574372e+02  1.3688672101276094e+02  1.3688564417411916e+02  9.5395314921429787e+01  9.5394492043465490e+01  9.5381464650762567e+01  9.5365394025258396e+01  9.5343145558226269e+01  9.5336913858206429e+01  9.5439277136923153e+01  9.5607412019421503e+01  9.5667753636957016e+01  9.5618043043048019e+01  9.5820354943561554e+01  9.6410907440471433e+01  9.6880876865399259e+01  9.7446554506499211e+01  9.8136712526922864e+01  9.8863524949278812e+01  9.9836489132122210e+01  1.0069376849086240e+02  1.0151862071853573e+02  1.0290362765256737e+02  1.0427547796119012e+02  1.0604865590921436e+02  1.0812244256599854e+02  1.1019377672384400e+02  1.1173827505323685e+02  1.1356053806938780e+02  1.1494518735967969e+02  1.1690900065791334e+02  1.2018951248579641e+02  1.2314048854176244e+02  1.2539838930274077e+02  1.2730926708492288e+02  1.2977462032056752e+02  1.3105528980227203e+02  1.3210167975700733e+02  1.3288255051138182e+02  1.3347974128919313e+02  1.3389051495039803e+02  1.3414260151356811e+02  1.3430559866183580e+02  1.3457103807216825e+02  1.3506415973897560e+02  1.3523992505709424e+02  1.3521472736360221e+02  1.3515068476425992e+02  1.3508015507444196e+02  1.3499758403409598e+02  1.3492699546439934e+02  1.3491033548744309e+02  9.6816473664369795e+01  9.6815387527652746e+01  9.6794274365383842e+01  9.6786043095244153e+01  9.6839526175360305e+01  9.7063923718190310e+01  9.7477096998924409e+01  9.7804845741461506e+01  9.7992646889015745e+01  9.8052162156702437e+01  9.7955214859318446e+01  9.7905224252347963e+01  9.8264734609438307e+01  9.8649569222908980e+01  9.9171454481128919e+01  9.9813195392606204e+01  1.0074944523319526e+02  1.0166063233657817e+02  1.0243293024814290e+02  1.0343835172626086e+02  1.0456289885448678e+02  1.0598085346305740e+02  1.0767304375229368e+02  1.0955572014910180e+02  1.1135446282342264e+02  1.1313779548554415e+02  1.1447524800356210e+02  1.1602889362984443e+02  1.1927368341197824e+02  1.2190737755114415e+02  1.2412991739591206e+02  1.2575035236543631e+02  1.2785548648296070e+02  1.2938730832501776e+02  1.3038140832361432e+02  1.3110937503285828e+02  1.3166621054834309e+02  1.3206958167656819e+02  1.3234820997843866e+02  1.3251323260124309e+02  1.3258720675563342e+02  1.3269411041198921e+02  1.3292238963165150e+02  1.3295210814399593e+02  1.3293620347659996e+02  1.3290861847446689e+02  1.3289666501931069e+02  1.3290317271261401e+02  1.3291620252730257e+02  9.8609255486912076e+01  9.8602039981223243e+01  9.8592699218786720e+01  9.8585867277328020e+01  9.8635055095149156e+01  9.8812709243247028e+01  9.9005363905439111e+01  9.9125678988909812e+01  9.9256741710762512e+01  9.9472676608435435e+01  9.9774911386809038e+01  9.9936671316075802e+01  9.9966875423314818e+01  1.0042178745263011e+02  1.0061434498302782e+02  1.0096113451634368e+02  1.0172901383355881e+02  1.0243985894945546e+02  1.0320528117112102e+02  1.0417703896124985e+02  1.0510983642890758e+02  1.0619527332914819e+02  1.0726722700233456e+02  1.0876616040316694e+02  1.1058377508331476e+02  1.1249279115478039e+02  1.1387327854769400e+02  1.1523271668158213e+02  1.1798926917215118e+02  1.2025826572146600e+02  1.2298608401969575e+02  1.2438635421687705e+02  1.2602313875034443e+02  1.2733565604457799e+02  1.2828826762704406e+02  1.2895310304319997e+02  1.2945235211934116e+02  1.2982887395207416e+02  1.3012177147009942e+02  1.3034382493149602e+02  1.3045406625284795e+02  1.3052684193965928e+02  1.3081691053575756e+02  1.3120712818291980e+02  1.3129649647449588e+02  1.3130717