<?xml version="1.0"?>
<VTKFile type="UnstructuredGrid"  version="0.1"  >
<UnstructuredGrid>
<Piece  NumberOfPoints="2912" NumberOfCells="5086">
<Points>
<DataArray  type="Float64"  NumberOfComponents="3"  format="ascii">-20 2.5 0  -20 0 0  -1 0 0  -0.9996988186962042 0.02454122852291233 0  -0.9987954562051724 0.04906767432741797 0  -0.9972904566786902 0.07356456359966773 0  -0.9951847266721968 0.09801714032956083 0  -0.99247953459871 0.1224106751992163 0  -0.989176509964781 0.1467304744553618 0  -0.9852776423889412 0.1709618887603012 0  -0.9807852804032304 0.1950903220161286 0  -0.9757021300385285 0.21910124015687 0  -0.970031253194544 0.2429801799032641 0  -0.9637760657954398 0.2667127574748985 0  -0.9569403357322088 0.2902846772544624 0  -0.9495281805930367 0.3136817403988914 0  -0.9415440651830207 0.3368898533922203 0  -0.9329927988347388 0.3598950365349883 0  -0.9238795325112867 0.3826834323650899 0  -0.9142097557035307 0.4052413140049899 0  -0.9039892931234433 0.427555093430282 0  -0.8932243011955152 0.4496113296546069 0  -0.8819212643483549 0.4713967368259979 0  -0.8700869911087113 0.4928981922297841 0  -0.857728610000272 0.5141027441932218 0  -0.8448535652497071 0.5349976198870972 0  -0.8314696123025453 0.5555702330196022 0  -0.8175848131515836 0.5758081914178454 0  -0.8032075314806448 0.5956993044924335 0  -0.7883464276266062 0.6152315905806269 0  -0.773010453362737 0.6343932841636455 0  -0.7572088465064846 0.6531728429537766 0  -0.7409511253549589 0.6715589548470186 0  -0.7242470829514668 0.6895405447370671 0  -0.7071067811865475 0.7071067811865476 0  -0.6895405447370669 0.7242470829514669 0  -0.6715589548470184 0.740951125354959 0  -0.6531728429537765 0.7572088465064847 0  -0.6343932841636454 0.7730104533627371 0  -0.6152315905806267 0.7883464276266063 0  -0.5956993044924334 0.8032075314806449 0  -0.5758081914178453 0.8175848131515837 0  -0.555570233019602 0.8314696123025455 0  -0.534997619887097 0.8448535652497072 0  -0.5141027441932217 0.8577286100002721 0  -0.492898192229784 0.8700869911087115 0  -0.4713967368259977 0.881921264348355 0  -0.4496113296546067 0.8932243011955152 0  -0.4275550934302819 0.9039892931234434 0  -0.4052413140049897 0.9142097557035307 0  -0.3826834323650897 0.9238795325112867 0  -0.3598950365349882 0.9329927988347388 0  -0.3368898533922199 0.9415440651830208 0  -0.3136817403988914 0.9495281805930367 0  -0.2902846772544622 0.9569403357322089 0  -0.2667127574748983 0.9637760657954398 0  -0.2429801799032639 0.970031253194544 0  -0.2191012401568697 0.9757021300385286 0  -0.1950903220161282 0.9807852804032304 0  -0.1709618887603012 0.9852776423889412 0  -0.1467304744553616 0.989176509964781 0  -0.1224106751992162 0.99247953459871 0  -0.09801714032956065 0.9951847266721969 0  -0.07356456359966733 0.9972904566786902 0  -0.04906767432741801 0.9987954562051724 0  -0.02454122852291214 0.9996988186962042 0  6.123233995736766e-17 1 0  0.02454122852291226 0.9996988186962042 0  0.04906767432741813 0.9987954562051724 0  0.07356456359966745 0.9972904566786902 0  0.09801714032956077 0.9951847266721968 0  0.1224106751992163 0.99247953459871 0  0.1467304744553617 0.989176509964781 0  0.1709618887603014 0.9852776423889412 0  0.1950903220161283 0.9807852804032304 0  0.2191012401568698 0.9757021300385286 0  0.242980179903264 0.970031253194544 0  0.2667127574748984 0.9637760657954398 0  0.2902846772544623 0.9569403357322089 0  0.3136817403988916 0.9495281805930367 0  0.3368898533922201 0.9415440651830208 0  0.3598950365349883 0.9329927988347388 0  0.3826834323650898 0.9238795325112867 0  0.4052413140049899 0.9142097557035307 0  0.4275550934302822 0.9039892931234433 0  0.4496113296546066 0.8932243011955153 0  0.4713967368259978 0.8819212643483549 0  0.4928981922297841 0.8700869911087113 0  0.5141027441932217 0.8577286100002721 0  0.5349976198870973 0.844853565249707 0  0.5555702330196023 0.8314696123025452 0  0.5758081914178453 0.8175848131515837 0  0.5956993044924335 0.8032075314806448 0  0.6152315905806268 0.7883464276266062 0  0.6343932841636455 0.773010453362737 0  0.6531728429537768 0.7572088465064845 0  0.6715589548470183 0.7409511253549591 0  0.6895405447370669 0.7242470829514669 0  0.7071067811865476 0.7071067811865475 0  0.724247082951467 0.6895405447370668 0  0.7409511253549591 0.6715589548470183 0  0.7572088465064846 0.6531728429537768 0  0.773010453362737 0.6343932841636455 0  0.7883464276266063 0.6152315905806268 0  0.8032075314806449 0.5956993044924334 0  0.8175848131515837 0.5758081914178453 0  0.8314696123025452 0.5555702330196022 0  0.8448535652497071 0.5349976198870972 0  0.8577286100002721 0.5141027441932217 0  0.8700869911087115 0.492898192229784 0  0.881921264348355 0.4713967368259976 0  0.8932243011955153 0.4496113296546065 0  0.9039892931234433 0.4275550934302821 0  0.9142097557035307 0.4052413140049899 0  0.9238795325112867 0.3826834323650898 0  0.932992798834739 0.3598950365349881 0  0.9415440651830208 0.3368898533922201 0  0.9495281805930367 0.3136817403988915 0  0.9569403357322088 0.2902846772544623 0  0.9637760657954398 0.2667127574748984 0  0.970031253194544 0.2429801799032639 0  0.9757021300385286 0.2191012401568698 0  0.9807852804032304 0.1950903220161282 0  0.9852776423889412 0.1709618887603012 0  0.989176509964781 0.1467304744553617 0  0.99247953459871 0.1224106751992162 0  0.9951847266721969 0.0980171403295606 0  0.9972904566786902 0.07356456359966743 0  0.9987954562051724 0.04906767432741801 0  0.9996988186962042 0.02454122852291229 0  1 0 0  20 0 0  20 2.5 0  0 2.5 0  -10 2.5 0  10 2.5 0  -10.5 0 0  -5 2.5 0  10.5 0 0  5 2.5 0  -5.75 0 0  5.75 0 0  -15.25 0 0  -15 2.5 0  15.25 0 0  15 2.5 0  -17.625 0 0  -17.5 2.5 0  17.5 2.5 0  17.625 0 0  12.5 2.5 0  12.875 0 0  -12.5 2.5 0  -12.875 0 0  -2.5 2.5 0  2.5 2.5 0  -8.125 0 0  -7.5 2.5 0  8.125 0 0  7.5 2.5 0  -3.375 0 0  3.375 0 0  -18.75 2.5 0  20 1.25 0  16.4375 1.19375 0  -16.25 2.5 0  13.75 2.5 0  -14.0625 0 0  -11.6875 0 0  11.6875 0 0  8.75 2.5 0  -8.75 2.5 0  6.9375 0 0  6.25 2.5 0  -6.25 2.5 0  -9.3125 0 0  -6.9375 0 0  9.3125 0 0  11.25 2.5 0  -11.25 2.5 0  3.75 2.5 0  4.5625 0 0  -4.5625 0 0  -3.75 2.5 0  -13.75 2.5 0  14.0625 0 0  -16.4375 0 0  -20 1.25 0  -18.8125 0 0  18.75 2.5 0  -18.21875 1.2359375 0  18.125 1.278125 0  -15.84375 1.2125 0  -14.375 1.30859375 0  14.65625 1.203125 0  2.1875 0 0  -2.1875 0 0  13.125 1.315625 0  3.125 1.315625 0  -3.125 1.315625 0  -12.28125 1.1890625 0  -5.15625 1.184375 0  11.09375 1.184375 0  5.625 1.325 0  -10.97262068800044 1.220713793599868 0  9.375 1.32734375 0  -6.875 1.32734375 0  -9.67626828410207 1.24449497187193 0  8.061334925608099 1.312208731402025 0  -8.188665074391901 1.312208731402025 0  -1.25 2.5 0  1.25 2.5 0  4.37465139623265 1.41327350462657 0  16.25 2.5 0  6.84375467392576 1.430449641528851 0  -1.846573640185365 1.334702047669377 0  1.846573640185365 1.334702047669377 0  -17.02955351149946 1.396129584721571 0  16.4375 0 0  18.8125 0 0  -13.31314667860176 1.511193493282891 0  -4.122005747945582 0.961844908681634 0  12.12799425205442 0.961844908681634 0  15.54930641305724 1.660405980876393 0  19.0578783583929 0.9559530595267438 0  8.71875 0.6864560603786576 0  -7.53125 0.6864560603786576 0  -0.6257799091428727 1.819008129832856 0  0.6257799091428734 1.819008129832855 0  6.291331569065717 0.7194652423646902 0  -19.11204717950418 0.9044926794710327 0  -4.488713231834613 1.772186102355655 0  11.76128676816539 1.772186102355655 0  -19.28185607205105 1.781856072051052 0  19.30868080343342 1.808680803433421 0  9.90625 0.6371857066656857 0  -6.34375 0.6371857066656857 0  3.796921710049233 0.7617406159238448 0  7.392020585015773 0.7480839107774819 0  -8.910372062800235 0.7929553447587234 0  10.2506781820361 1.451853913138859 0  -5.999321817963904 1.451853913138859 0  4.957643119381741 0.7716423099297361 0  17.29984375 0.8640625 0  15.41193625859067 0.8279888354083842 0  -13.72251704931534 0.7728002662082776 0  16.875 2.5 0  17.12178336313261 1.690954734835967 0  -11.64001625260176 1.74572103154608 0  2.477726735235857 0.7850262278604345 0  13.46875 0 0  13.765625 0.7802887470308788 0  -2.78125 0 0  -2.477726735235857 0.7850262278604346 0  -10.33383379274331 1.744431431923121 0  13.91957519050334 1.653419259628842 0  -15.08147780274903 0.8341506893754731 0  -15.14066649024666 1.671962869821843 0  -8.950686484882164 1.678622661163363 0  -17.55392917606836 0.794731598412167 0  -16.80247533599675 0.6688259240674158 0  -12.94289066923278 0.7766744225472476 0  -9.90625 0 0  -10.31601468672093 0.7730817089126454 0  -18.21875 0 0  -12.28125 0 0  -17.68515668569534 1.768907656575843 0  18.21875 0 0  10.85059123027421 1.880344717307101 0  -5.399408769725794 1.880344717307101 0  -3.738137326223278 1.749164834446819 0  -3.125 2.5 0  12.46235897590077 1.601301060091387 0  -11.09375 0 0  -11.61661448001209 0.7781698802173554 0  -15.625 2.5 0  -1.764022608759088 0.6027229563180789 0  1.59375 0 0  -8.125 2.5 0  8.125 2.5 0  8.713468311289519 1.727645658498745 0  9.375 2.5 0  -7.536531688710481 1.727645658498745 0  -6.875 2.5 0  14.375 2.5 0  17.78381794101733 1.874391370085592 0  18.59891476281433 1.80649740393129 0  -18.58835555265984 1.824268641341969 0  1.806126122135773 0.6510673837470153 0  -16.875 2.5 0  -16.36681393636619 1.755298393865037 0  -16.13072438662071 0.6014017614895231 0  -13.92460230791385 1.83195710210235 0  -14.40198779087891 0.6105385965811564 0  20 0.625 0  19.40625 0 0  14.6875 1.888836596385542 0  14.65625 0 0  12.78248197181444 0.6991460920542635 0  -3.467518028185561 0.6991460920542635 0  13.125 2.5 0  2.491957142932539 1.738660596534321 0  3.125 2.5 0  1.875 2.5 0  3.718973573227002 1.75927763286174 0  -2.491957142932539 1.738660596534321 0  -1.875 2.5 0  -9.375 2.5 0  6.2001972846108 1.772767401802766 0  5.625 2.5 0  5.027483518098582 1.760895488350309 0  5.625981449127788 0.6566963631252629 0  -12.30101114679273 1.859484693920165 0  9.742489932362783 1.884363450023167 0  -6.507510067637216 1.884363450023166 0  1.13492303295015 1.283502262067074
[...]
<PointData  Scalars="f_20286921"> 
<DataArray  type="Float64"  Name="f_20286921"  format="ascii">9.9999999759278302e-01  1.0000000078645108e+00  9.9999262772317898e-01  9.9999635279256249e-01  9.9999508478093357e-01  9.9999313419560221e-01  9.9999057650699508e-01  9.9998717365330947e-01  9.9998261946261091e-01  9.9997612587087104e-01  9.9997266322307421e-01  9.9996473369161132e-01  9.9995630406363933e-01  9.9994901347432785e-01  9.9993991612093114e-01  9.9992974356538378e-01  9.9991971159312243e-01  9.9990987157137812e-01  9.9990081273020981e-01  9.9989448530829883e-01  9.9988010405390215e-01  9.9986802823695620e-01  9.9985884834083372e-01  9.9984420517348693e-01  9.9983214161860778e-01  9.9982295464917359e-01  9.9980904377373181e-01  9.9979972891991187e-01  9.9978911546483251e-01  9.9977343154185727e-01  9.9976331146888753e-01  9.9974930052788058e-01  9.9974333375100488e-01  9.9973823201231671e-01  9.9972827612536097e-01  9.9972394031831602e-01  9.9972463441013004e-01  9.9970807394150629e-01  9.9969966051862436e-01  9.9970031303909546e-01  9.9970059018260415e-01  9.9969927741292097e-01  9.9970188437877794e-01  9.9970930931789470e-01  9.9971637797752555e-01  9.9972235746461247e-01  9.9972024920100666e-01  9.9972587838030191e-01  9.9972525441634885e-01  9.9972777202268659e-01  9.9974481869115106e-01  9.9975467179576216e-01  9.9976346063483057e-01  9.9977838604670066e-01  9.9979872896094435e-01  9.9981782179853440e-01  9.9982822065622035e-01  9.9984536344347108e-01  9.9985830859851177e-01  9.9987427371801463e-01  9.9988967675495799e-01  9.9990785300431817e-01  9.9992818424771035e-01  9.9994257050327739e-01  9.9996197465917169e-01  9.9998063004758442e-01  1.0000000705162324e+00  1.0000186695151256e+00  1.0000367720886827e+00  1.0000560467584574e+00  1.0000762599081272e+00  1.0000933863626231e+00  1.0001070266292880e+00  1.0001285331604135e+00  1.0001464528024469e+00  1.0001610978903850e+00  1.0001748828843728e+00  1.0001926205814968e+00  1.0002045718502730e+00  1.0002182258406882e+00  1.0002322980579179e+00  1.0002488905551803e+00  1.0002624049026443e+00  1.0002651353508230e+00  1.0002633049482081e+00  1.0002667262088454e+00  1.0002854562403574e+00  1.0002933761456296e+00  1.0002955791968682e+00  1.0002941725427894e+00  1.0002976598958968e+00  1.0003006850253575e+00  1.0003021586753504e+00  1.0002912596680906e+00  1.0002880619957335e+00  1.0002905089784766e+00  1.0002854695880083e+00  1.0002770086315289e+00  1.0002723611706472e+00  1.0002650235982018e+00  1.0002497660371366e+00  1.0002462238476808e+00  1.0002401145036259e+00  1.0002249980818125e+00  1.0002185340971663e+00  1.0002047865961745e+00  1.0001887722184337e+00  1.0001826182626501e+00  1.0001684364386967e+00  1.0001605597870578e+00  1.0001482747982351e+00  1.0001311087096170e+00  1.0001224401927593e+00  1.0001110874921415e+00  1.0001031041637947e+00  1.0000950567364915e+00  1.0000800061580462e+00  1.0000685525663131e+00  1.0000605549025159e+00  1.0000501634341223e+00  1.0000436263160866e+00  1.0000368299216569e+00  1.0000296435559217e+00  1.0000227325336191e+00  1.0000178985147539e+00  1.0000128548658362e+00  1.0000101056541051e+00  1.0000075228359224e+00  1.0000040896677573e+00  1.0000028460508126e+00  1.0000035779948655e+00  1.0000000326401146e+00  9.9999997617890624e-01  9.9999970062084675e-01  1.0000000020258661e+00  1.0000000056809251e+00  9.9999999714211929e-01  1.0000005895093507e+00  9.9999999240440962e-01  9.9999947339385731e-01  9.9999969581724812e-01  1.0000002897752422e+00  1.0000000007785435e+00  1.0000000000726859e+00  1.0000000004426040e+00  9.9999999957860752e-01  1.0000000714444968e+00  9.9999994905017187e-01  9.9999999055886835e-01  1.0000000161093030e+00  9.9999999845634757e-01  1.0000000024667171e+00  9.9999999723607935e-01  1.0000000047959250e+00  1.0000128774233359e+00  9.9998865423122196e-01  9.9999998794402001e-01  1.0000000171723926e+00  1.0000000102775235e+00  9.9999998499032117e-01  9.9999138249841546e-01  1.0000078727623596e+00  9.9999988326165890e-01  9.9999999534782047e-01  1.0000000001701281e+00  9.9999999043711274e-01  9.9999999886818447e-01  1.0000000022940339e+00  1.0000000001921421e+00  1.0000000021421500e+00  9.9999999714104604e-01  1.0000000043627122e+00  1.0000000447937269e+00  9.9999991427804680e-01  1.0000000835338019e+00  9.9999999625962055e-01  9.9999994332480835e-01  9.9999999617932278e-01  1.0000000003448730e+00  1.0000000005116514e+00  9.9999705405264439e-01  1.0000014971137754e+00  9.9999839580883443e-01  1.0000029303153324e+00  9.9999999816477303e-01  1.0000000027115448e+00  1.0000000192914786e+00  1.0000000027308076e+00  1.0000000323783447e+00  9.9999997285785558e-01  1.0000000188498985e+00  9.9999999598075984e-01  9.9999999928885197e-01  9.9999999957509167e-01  9.9999999950624019e-01  1.0000371271101187e+00  9.9996000476348068e-01  9.9999999940394391e-01  9.9999655043243973e-01  1.0000027562500815e+00  9.9999999983894927e-01  1.0000000706002250e+00  1.0000000003786305e+00  9.9999991432790492e-01  1.0000000004104559e+00  1.0000000009873233e+00  1.0000000172194259e+00  1.0000000003109473e+00  9.9999999809444606e-01  1.0000000026796716e+00  1.0000245526022380e+00  9.9997539085612164e-01  9.9999913851470679e-01  1.0000000010303136e+00  9.9999997841517418e-01  1.0000111201000736e+00  9.9998916677512917e-01  9.9999998754431929e-01  9.9999999849493126e-01  1.0000000453064852e+00  9.9999999827471842e-01  9.9999949880882277e-01  1.0000000005578782e+00  1.0000000002849470e+00  1.0000000112652969e+00  1.0000000023225752e+00  9.9999998757281994e-01  1.0000292637047514e+00  9.9997035488822883e-01  1.0000000632429769e+00  9.9999999228915970e-01  1.0000010788450568e+00  9.9999999848361387e-01  1.0000000774709095e+00  9.9999997484108083e-01  9.9999999473810597e-01  9.9999992179175423e-01  1.0000018512448017e+00  1.0000000119832226e+00  9.9999999756194380e-01  1.0000000031018452e+00  1.0000000694457349e+00  1.0000003695907269e+00  1.0000000031474785e+00  9.9999999979809462e-01  1.0000000012098718e+00  9.9999999807693862e-01  9.9999999706300569e-01  9.9999999987343657e-01  1.0000111518635046e+00  1.0000000022070252e+00  1.0000000007583976e+00  9.9998100329131967e-01  9.9998873096304808e-01  1.0000000015870218e+00  9.9999999888231150e-01  9.9999999978763199e-01  9.9999999935154704e-01  1.0000000027519076e+00  1.0000000442306403e+00  1.0000000201475614e+00  1.0000000018804454e+00  9.9999999706287979e-01  9.9999999883302915e-01  1.0000000937184637e+00  1.0000000029030880e+00  9.9999994099336154e-01  1.0000000338618140e+00  1.0000000029314613e+00  1.0000003127404260e+00  1.0000030472614552e+00  1.0000065885034766e+00  9.9999999856200184e-01  9.9999999812894358e-01  1.0000000002043623e+00  9.9999999782336724e-01  9.9995846743954142e-01  1.0000842548802376e+00  1.0000000085678771e+00  9.9999999209664736e-01  9.9999999780389370e-01  1.0000000021189619e+00  1.0000000150046646e+00  1.0000000346864506e+00  9.9999999871670309e-01  9.9999998702042237e-01  9.9999997644761351e-01  9.9999992735365928e-01  1.0000356370632848e+00  9.9999997941108154e-01  9.9999998802111989e-01  1.0000000074943505e+00  9.9999999852215049e-01  1.0000000003109206e+00  1.0000000209249220e+00  1.0000000400798201e+00  9.9999999890012548e-01  1.0000000022929441e+00  1.0000000010397747e+00  9.9999639652279348e-01  9.9999999911561510e-01  9.9998634648972362e-01  9.9999416117692286e-01  9.9998320629233783e-01  9.9999689611914633e-01  1.0000143759000777e+00  1.0000190300460523e+00  1.0000000028297142e+00  9.9999991031730073e-01  9.9999976237543531e-01  9.9999946005241891e-01  1.0000001930667763e+00  9.9999999813122720e-01  1.0000000046454831e+00  1.0000000620690539e+00  9.9999186087135494e-01  1.0000083532332236e+00  1.0000000010795609e+00  9.9999932753121901e-01  9.9999999642052073e-01  9.9999981333076460e-01  1.0000000009570897e+00  1.0000063757885636e+00  9.9999999858482491e-01  9.9999999870222189e-01  9.9999999337957501e-01  1.0000000069261576e+00  9.9999998584440031e-01  1.0000310795161982e+00  9.9996964926815357e-01  1.0000000010660712e+00  1.0000000035025713e+00  9.9999625583386798e-01  1.0000000021170485e+00  9.9999999788362604e-01  1.0000000153627775e+00  9.9999990339180389e-01  9.9999999698727249e-01  1.0000000843450589e+00  9.9999985499442157e-01  9.9999997535060126e-01  9.9999999979888821e-01  9.9999996511171796e-01  9.9999860444316346e-01  1.0000001019809952e+00  1.0000000016301063e+00  9.9999997998819568e-01  9.9999999901905301e-01  1.0000000840781340e+00  9.9999999809642670e-01  1.0000013575596038e+00  9.9997954637015440e-01  1.0000212198747671e+00  1.0000000006783909e+00  1.0000000340971194e+00  9.9999997946124530e-01  9.9999997162836873e-01  1.0000000046006863e+00  1.0000002131960826e+00  9.9999999630685588e-01  9.9999999873124001e-01  1.0000000004160705e+00  9.9999931151690191e-01  9.9999999724161448e-01  1.0000000009905703e+00  9.9999999980160603e-01  1.0000000064112680e+00  9.9999999333711997e-01  1.0000000023469926e+00  9.9999996454160123e-01  9.9999999801169637e-01  9.9992013545283875e-01  1.0000000001978495e+00  1.0000000045929724e+00  1.0000006988118399e+00  9.9999999375898729e-01  1.0000000210930975e+00  1.0000036555701652e+00  9.9999986704027044e-01  9.9999999190731770e-01  1.0000001243698324e+00  9.9999997587883693e-01  1.0000000035796146e+00  1.0000000427020292e+00  1.0000000059734127e+00  1.0000190453852473e+00  1.0000000047882773e+00  9.9999321985082179e-01  9.9999999894814662e-01  1.0000071947073295e+00  9.9999973320706048e-01  9.9999999929552252e-01  1.0000000264008881e+00  1.0000013090168167e+00  1.0000000023407392e+00  9.9999997434509458e-01  1.0000000357146077e+00  9.9999999991854882e-01  9.9999882734407042e-01  9.9999999674792728e-01  9.9999999904624026e-01  9.9999999920820482e-01  1.0000000008799173e+00  1.0000001623321280e+00  1.0000000058185483e+00  9.9999999694951891e-01  9.9999996920399836e-01  1.0000000270474265e+00  1.0000001455703800e+00  1.0000000000349476e+00  1.0000005891336796e+00  9.9999997707507526e-01  9.9999999737776324e-01  1.0000000032263405e+00  9.9999999997042310e-01  1.0000000291839033e+00  1.0000000013190720e+00  9.9999999804968409e-01  1.0000000791863661e+00  9.9999999628165248e-01  1.0000000267147195e+00  9.9999805393913599e-01  1.0000000027724198e+00  1.0000000000850890e+00  9.9999999972642939e-01  9.9999896762473961e-01  9.9998906433291235e-01  9.9999984939795394e-01  1.0000000034797534e+00  9.9999999257279248e-01  1.0000000004706224e+00  1.0000021438977060e+00  9.9999999979974774e-01  1.0000187764906812e+00  9.9997908999838048e-01  1.0000000004550662e+00  1.0000000109663794e+00  1.0000000001360225e+00  9.9999998604411378e-01  9.9999999903392700e-01  9.9999999956456231e-01  9.9999999863575084e-01  9.9999999891299451e-01  9.9999999958228258e-01  1.0000544791684336e+00  9.9999999967077480e-01  9.9999569568457847e-01  1.0000062011189972e+00  1.0000000148000727e+00  9.9999990948892381e-01  9.9999985877825504e-01  1.0000000521517627e+00  1.0000000001676870e+00  9.9994977822758391e-01  1.0000348101935419e+00  9.9996471682548116e-01  1.0000092944376073e+00  9.9999110374331301e-01  1.0000000040858106e+00  9.9999999999324873e-01  9.9999999911203463e-01  9.9999780200719102e-01  9.9999999989664934e-01  1.0000000029135754e+00  9.9999999958234609e-01  1.0000000109316010e+00  1.0000000017066930e+00  9.9999999776795134e-01  9.9999952416545124e-01  9.9999999840913700e-01  1.0000000002412235e+00  1.0000006582414174e+00  1.0000000000515408e+00  9.9999999885950608e-01  1.0000000060255814e+00  9.9999998514138921e-01  1.0000000058387128e+00  9.9999994214662680e-01  1.0000000015024459e+00  9.9999989935275280e-01  1.0000001663144369e+00  1.0000000319691704e+00  9.9999999914078885e-01  9.9999998193281237e-01  9.9999999261634775e-01  1.0000103862349141e+00  1.0000000000806306e+00  1.0000004648998515e+00  9.9999999893227176e-01  1.0000008008716059e+00  9.9999999840319087e-01  9.9999999582201471e-01  9.9999999920741967e-01  9.9999997116317763e-01  1.0000000011329386e+00  1.0000000006288907e+00  1.0000163918438223e+00  9.9998463859652431e-01  1.0000000324639804e+00  1.0000000002522431e+00  9.9999999855173760e-01  9.9999996894819665e-01  1.0000000191054992e+00  1.0000000020719204e+00  1.0000000025985258e+00  1.0000000429742426e+00  1.0000001547274961e+00  9.9999997433795895e-01  9.9999999413706686e-01  9.9999985644809852e-01  9.9999998954324310e-01  9.9998947740378408e-01  9.9999134904472886e-01  1.0000000270788452e+00  1.0000000044352033e+00  9.9999999773615633e-01  9.9999999891073788e-01  9.9999999305892506e-01  9.9999980574427938e-01  1.0000002515177320e+00  1.0000048044110335e+00  1.0000000663584976e+00  1.0000001813590689e+00  1.0000009665684302e+00  9.9999999883921065e-01  9.9990887464958234e-01  1.0000000674813425e+00  1.0000000026103453e+00  9.9999477251190694e-01  1.0000201649512670e+00  1.0000000094588521e+00  9.9999998360134223e-01  1.0000000022902271e+00  9.9999999487827396e-01  1.0000000005776248e+00  9.9999999973270004e-01  9.9999999974415077e-01  1.0000000003262506e+00  1.0000000006449359e+00  9.9999563374873857e-01  1.0000000032154126e+00  1.0000000041484807e+00  1.0000000010640060e+00  1.0000012250323311e+00  9.9999999387501415e-01  9.9999992181593256e-01  1.0000000000864433e+00  1.0000000029375535e+00  1.0000000003104352e+00  1.0000000003252121e+00  9.9999999136158280e-01  1.0000000145203551e+00  9.9997830368332874e-01  1.0000238398404717e+00  9.9999997079424485e-01  1.0000000007724339e+00  9.9999997567812815e-01  9.9999997924593809e-01  9.9999999871948375e-01  9.9999999895847458e-01  9.9999652290857877e-01  1.0000084403547975e+00  9.9999958796697519e-01  1.0000000016863004e+00  1.0000144799886570e+00  1.0000041405893751e+00  9.9998820646104425e-01  1.0000000018469779e+00  1.0000000013759534e+00  9.9999997977139743e-01  9.9996545216424160e-01  1.0000001565245977e+00  9.9999999884013036e-01  1.0000000210329609e+00  9.9999996748053777e-01  9.9999995097599925e-01  9.9999999959609198e-01  1.0000000043704929e+00  9.9999999991016775e-01  9.9999999849343346e-01  1.0000000010726815e+00  9.9999999735387668e-01  9.9999999991183730e-01  1.0000960697078802e+00  1.0000000019927444e+00  1.0000005067538322e+00  1.0000000002697420e+00  1.0000030990685220e+00  1.0000000083943246e+00  9.9999999791700156e-01  9.9999999925621108e-01  1.0000000002677447e+00  9.9999893566679743e-01  1.0000004200373465e+00  9.9999988795571204e-01  9.9999998662428202e-01  9.9999992545153937e-01  1.0000000087431826e+00  1.0000000006014298e+00  9.9999999923280847e-01  9.9999999943099283e-01  9.9999563323998142e-01  9.9999999898122560e-01  9.9999815772308964e-01  1.0000000045730013e+00  9.9999999556056840e-01  1.0000068679642644e+00  9.9997485648963269e-01  9.9999771285314132e-01  1.0000054415967767e+00  9.9998988808302591e-01  1.0000000612564428e+00  1.0000000302518441e+00  9.9999998238220800e-01  9.9999995226659011e-01  1.0000000006977650e+00  1.0000000037906556e+00  1.0000000006463658e+00  1.0000000096386434e+00  9.9999999962907593e-01  9.9999998483018537e-01  9.9999999995031796e-01  9.9999988741498846e-01  1.0000000154548743e+00  9.9999999695480613e-01  9.9999995215198090e-01  1.0000002067770566e+00  9.9999634089490175e-01  1.0000252278358721e+00  1.0000000125917849e+00  1.0000000276477727e+00  1.0000000182271225e+00  1.0000000303589269e+00  1.0000000047873892e+00  1.0000000027659852e+00  9.9999999512214954e-01  9.9999188407462414e-01  9.9999963299211858e-01  1.0000000776289288e+00  1.0000000836362568e+00  9.9999999849247978e-01  1.0000339069964239e+00  1.0000000017497348e+00  9.9999996543702596e-01  9.9999999550991348e-01  9.9999998417408709e-01  9.9996862824659638e-01  9.9999999994443145e-01  1.0000030091577508e+00  9.9999997893462722e-01  9.9999924352799774e-01  1.0000025769747480e+00  1.0000000047917368e+00  9.9999955109415017e-01  9.9999999468093115e-01  9.9999992260676118e-01  9.9999693519839705e-01  9.9999971600843418e-01  1.0000000589412394e+00  9.9999998760293851e-01  1.0000000040362811e+00  1.0000003527315953e+00  1.0000000025182123e+00  1.0000001874758893e+00  9.9999999903447279e-01  9.9999999851483090e-01  1.0000010918797051e+00  1.0000092975724166e+00  1.0000000015564954e+00  9.9999999954435692e-01  1.0000327144021817e+00  9.9999998603680706e-01  9.9999999289396191e-01  9.9999992360088663e-01  1.0000018058893130e+00  9.9996207158069772e-01  9.9997695267817555e-01  1.0000138204536264e+00  1.0000419914552263e+00  9.9999999892505587e-01  1.0000000014170309e+00  9.9999999812036844e-01  9.9999999508511228e-01  9.9999963745545484e-01  1.0000000514490883e+00  1.0000000402479927e+00  1.0000000041786448e+00  1.0000000028204499e+00  9.9999999682797924e-01  1.0000000002001619e+00  1.0000000005290270e+00  9.9999998622825836e-01  9.9999997434904220e-01  1.0000024717851779e+00  1.0000000012876575e+00  9.9999997433682930e-01  1.0000000261821769e+00  1.0000000328161884e+00  1.0000000009710093e+00  1.0000000010009944e+00  9.9999172790695201e-01  9.9999852234610875e-01  9.9999999991828281e-01  1.0000000030498268e+00  9.9999998084396780e-01  9.9999999745615931e-01  1.0000000010628898e+00  1.0000000015758856e+00  9.9999999873066259e-01  9.9999982092057782e-01  1.0000000060432466e+00  1.0000000205095390e+00  9.9999998827486969e-01  9.9999986942441887e-01  1.0000000004099083e+00  1.0000000022734079e+00  1.0000000722712128e+00  9.9999999899572412e-01  9.9999999814955653e-01  9.9999999795286143e-01  9.9999999821720231e-01  9.9999999266265915e-01  9.9999999919456961e-01  9.9999999879439139e-01  9.9999999939936079e-01  9.9994427983004952e-01  1.0000591203870126e+00  1.0000000020911228e+00  9.9999999689792884e-01  9.9999999718946031e-01  1.0000000283025463e+00  1.0000000400111226e+00  1.0000000019398638e+00  9.9997195015647544e-01  9.9997496129006191e-01  1.0000284348531128e+00  9.9999999682652652e-01  1.0000000002949749e+00  9.9999985799643631e-01  1.0000000015060229e+00  9.9999916974512459e-01  1.0000000021515230e+00  9.9999859523883550e-01  1.0000000522746151e+00  1.0000000942881457e+00  1.0000000009499164e+00  1.0000000096082200e+00  1.0000000107113842e+00  1.0000041985093358e+00  1.0000091596710459e+00  1.0000000006242753e+00  9.9999999939718032e-01  1.0000000346272513e+00  9.9999917391880966e-01  1.0000002790917579e+00  1.0000000025252278e+00  1.0000000048108044e+00  1.0000000608423558e+00  1.0000000380417577e+00  1.0000000052599984e+00  1.0000000702343121e+00  1.0000000027191200e+00  9.9999999856033617e-01  9.9999999795425520e-01  9.9999999832875430e-01  1.0000000014697983e+00  1.0000000058289951e+00  1.0000000034601011e+00  9.9999999477318757e-01  9.9999999867944511e-01  1.0000001168226698e+00  1.0000000005070033e+00  1.0000254267088582e+00  1.0000002879631193e+00  1.0000000046946955e+00  1.0000000015753765e+00  9.9999998996531647e-01  1.0000000095992942e+00  9.9999999887060165e-01  9.9999996771511357e-01  9.9999996530934099e-01  1.0000253568788748e+00  9.9996993072642026e-01  1.0000304628391172e+00  9.9997542745718049e-01  1.0000000095731083e+00  9.9999999973603515e-01  1.0000000381534555e+00  9.9999999797110473e-01  9.9999999669774475e-01  9.9999999764910219e-01  1.0000012613714786e+00  9.9999999793918781e-01  9.9999991734169691e-01  9.9999999965500963e-01  1.0000004660218282e+00  9.9999999764371716e-01  9.9999986655690409e-01  9.9999998135198576e-01  9.9999999718411514e-01  9.9998435873691971e-01  9.9999999820854468e-01  9.9996612485211755e-01  1.0000243852900881e+00  9.9999999817218499e-01  9.9999999244799453e-01  9.9999987234589471e-01  1.0000000000512823e+00  9.9999915424984098e-01  1.0000000022570490e+00  9.9998659146703461e-01  9.9999997112351202e-01  1.0000000073608402e+00  1.0000000006798653e+00  9.9999999944766349e-01  9.9999999225405489e-01  9.9998286458170771e-01  1.0000010932101091e+00  1.0000171121721417e+00  1.0000142241599665e+00  9.9999999995574440e-01  1.0000000025158129e+00  1.0000000010260008e+00  9.9993599973474057e-01  9.9999998453679351e-01  9.9998212282988774e-01  1.0000000383653898e+00  1.0000000195096048e+00  1.0000000003387901e+00  1.00000