<?xml version="1.0"?>
<VTKFile type="UnstructuredGrid"  version="0.1"  >
<UnstructuredGrid>
<Piece  NumberOfPoints="2401" NumberOfCells="4608">
<Points>
<DataArray  type="Float64"  NumberOfComponents="3"  format="ascii">0 0 0  0.001070538380698371 0 0  0.004277569313095364 0 0  0.009607359798386061 0 0  0.01703708685546806 0 0  0.02653493525245065 0 0  0.03806023374436157 0 0  0.05156362923366253 0 0  0.06698729810778931 0 0  0.08426519384873815 0 0  0.1033233298543955 0 0  0.1240800962605269 0 0  0.1464466094067445 0 0  0.1703270924499866 0 0  0.1956192854956637 0 0  0.2222148834902257 0 0  0.2500000000000299 0 0  0.2788556548905322 0 0  0.308658283817491 0 0  0.339280267348458 0 0  0.3705904774487813 0 0  0.4024548389919803 0 0  0.4347369038900211 0 0  0.467298435384978 0 0  0.5000000000000517 0 0  0.5327015646151253 0 0  0.5652630961100813 0 0  0.5975451610081212 0 0  0.6294095225513188 0 0  0.6607197326516399 0 0  0.6913417161826045 0 0  0.7211443451095605 0 0  0.7500000000000597 0 0  0.7777851165098603 0 0  0.8043807145044185 0 0  0.829672907550091 0 0  0.8535533905933287 0 0  0.8759199037395413 0 0  0.8966766701456674 0 0  0.9157348061513193 0 0  0.9330127018922625 0 0  0.9484363707663832 0 0  0.961939766255678 0 0  0.9734650647475827 0 0  0.9829629131445586 0 0  0.9903926402016341 0 0  0.9957224306869181 0 0  0.9989294616193084 0 0  1 0 0  0 0.02083333333333333 0  0.001070538380698371 0.02083333333333333 0  0.004277569313095364 0.02083333333333333 0  0.009607359798386061 0.02083333333333333 0  0.01703708685546806 0.02083333333333333 0  0.02653493525245065 0.02083333333333333 0  0.03806023374436157 0.02083333333333333 0  0.05156362923366253 0.02083333333333333 0  0.06698729810778931 0.02083333333333333 0  0.08426519384873815 0.02083333333333333 0  0.1033233298543955 0.02083333333333333 0  0.1240800962605269 0.02083333333333333 0  0.1464466094067445 0.02083333333333333 0  0.1703270924499866 0.02083333333333333 0  0.1956192854956637 0.02083333333333333 0  0.2222148834902257 0.02083333333333333 0  0.2500000000000299 0.02083333333333333 0  0.2788556548905322 0.02083333333333333 0  0.308658283817491 0.02083333333333333 0  0.339280267348458 0.02083333333333333 0  0.3705904774487813 0.02083333333333333 0  0.4024548389919803 0.02083333333333333 0  0.4347369038900211 0.02083333333333333 0  0.467298435384978 0.02083333333333333 0  0.5000000000000517 0.02083333333333333 0  0.5327015646151253 0.02083333333333333 0  0.5652630961100813 0.02083333333333333 0  0.5975451610081212 0.02083333333333333 0  0.6294095225513188 0.02083333333333333 0  0.6607197326516399 0.02083333333333333 0  0.6913417161826045 0.02083333333333333 0  0.7211443451095605 0.02083333333333333 0  0.7500000000000597 0.02083333333333333 0  0.7777851165098603 0.02083333333333333 0  0.8043807145044185 0.02083333333333333 0  0.829672907550091 0.02083333333333333 0  0.8535533905933287 0.02083333333333333 0  0.8759199037395413 0.02083333333333333 0  0.8966766701456674 0.02083333333333333 0  0.9157348061513193 0.02083333333333333 0  0.9330127018922625 0.02083333333333333 0  0.9484363707663832 0.02083333333333333 0  0.961939766255678 0.02083333333333333 0  0.9734650647475827 0.02083333333333333 0  0.9829629131445586 0.02083333333333333 0  0.9903926402016341 0.02083333333333333 0  0.9957224306869181 0.02083333333333333 0  0.9989294616193084 0.02083333333333333 0  1 0.02083333333333333 0  0 0.04166666666666666 0  0.001070538380698371 0.04166666666666666 0  0.004277569313095364 0.04166666666666666 0  0.009607359798386061 0.04166666666666666 0  0.01703708685546806 0.04166666666666666 0  0.02653493525245065 0.04166666666666666 0  0.03806023374436157 0.04166666666666666 0  0.05156362923366253 0.04166666666666666 0  0.06698729810778931 0.04166666666666666 0  0.08426519384873815 0.04166666666666666 0  0.1033233298543955 0.04166666666666666 0  0.1240800962605269 0.04166666666666666 0  0.1464466094067445 0.04166666666666666 0  0.1703270924499866 0.04166666666666666 0  0.1956192854956637 0.04166666666666666 0  0.2222148834902257 0.04166666666666666 0  0.2500000000000299 0.04166666666666666 0  0.2788556548905322 0.04166666666666666 0  0.308658283817491 0.04166666666666666 0  0.339280267348458 0.04166666666666666 0  0.3705904774487813 0.04166666666666666 0  0.4024548389919803 0.04166666666666666 0  0.4347369038900211 0.04166666666666666 0  0.467298435384978 0.04166666666666666 0  0.5000000000000517 0.04166666666666666 0  0.5327015646151253 0.04166666666666666 0  0.5652630961100813 0.04166666666666666 0  0.5975451610081212 0.04166666666666666 0  0.6294095225513188 0.04166666666666666 0  0.6607197326516399 0.04166666666666666 0  0.6913417161826045 0.04166666666666666 0  0.7211443451095605 0.04166666666666666 0  0.7500000000000597 0.04166666666666666 0  0.7777851165098603 0.04166666666666666 0  0.8043807145044185 0.04166666666666666 0  0.829672907550091 0.04166666666666666 0  0.8535533905933287 0.04166666666666666 0  0.8759199037395413 0.04166666666666666 0  0.8966766701456674 0.04166666666666666 0  0.9157348061513193 0.04166666666666666 0  0.9330127018922625 0.04166666666666666 0  0.9484363707663832 0.04166666666666666 0  0.961939766255678 0.04166666666666666 0  0.9734650647475827 0.04166666666666666 0  0.9829629131445586 0.04166666666666666 0  0.9903926402016341 0.04166666666666666 0  0.9957224306869181 0.04166666666666666 0  0.9989294616193084 0.04166666666666666 0  1 0.04166666666666666 0  0 0.0625 0  0.001070538380698371 0.0625 0  0.004277569313095364 0.0625 0  0.009607359798386061 0.0625 0  0.01703708685546806 0.0625 0  0.02653493525245065 0.0625 0  0.03806023374436157 0.0625 0  0.05156362923366253 0.0625 0  0.06698729810778931 0.0625 0  0.08426519384873815 0.0625 0  0.1033233298543955 0.0625 0  0.1240800962605269 0.0625 0  0.1464466094067445 0.0625 0  0.1703270924499866 0.0625 0  0.1956192854956637 0.0625 0  0.2222148834902257 0.0625 0  0.2500000000000299 0.0625 0  0.2788556548905322 0.0625 0  0.308658283817491 0.0625 0  0.339280267348458 0.0625 0  0.3705904774487813 0.0625 0  0.4024548389919803 0.0625 0  0.4347369038900211 0.0625 0  0.467298435384978 0.0625 0  0.5000000000000517 0.0625 0  0.5327015646151253 0.0625 0  0.5652630961100813 0.0625 0  0.5975451610081212 0.0625 0  0.6294095225513188 0.0625 0  0.6607197326516399 0.0625 0  0.6913417161826045 0.0625 0  0.7211443451095605 0.0625 0  0.7500000000000597 0.0625 0  0.7777851165098603 0.0625 0  0.8043807145044185 0.0625 0  0.829672907550091 0.0625 0  0.8535533905933287 0.0625 0  0.8759199037395413 0.0625 0  0.8966766701456674 0.0625 0  0.9157348061513193 0.0625 0  0.9330127018922625 0.0625 0  0.9484363707663832 0.0625 0  0.961939766255678 0.0625 0  0.9734650647475827 0.0625 0  0.9829629131445586 0.0625 0  0.9903926402016341 0.0625 0  0.9957224306869181 0.0625 0  0.9989294616193084 0.0625 0  1 0.0625 0  0 0.08333333333333333 0  0.001070538380698371 0.08333333333333333 0  0.004277569313095364 0.08333333333333333 0  0.009607359798386061 0.08333333333333333 0  0.01703708685546806 0.08333333333333333 0  0.02653493525245065 0.08333333333333333 0  0.03806023374436157 0.08333333333333333 0  0.05156362923366253 0.08333333333333333 0  0.06698729810778931 0.08333333333333333 0  0.08426519384873815 0.08333333333333333 0  0.1033233298543955 0.08333333333333333 0  0.1240800962605269 0.08333333333333333 0  0.1464466094067445 0.08333333333333333 0  0.1703270924499866 0.08333333333333333 0  0.1956192854956637 0.08333333333333333 0  0.2222148834902257 0.08333333333333333 0  0.2500000000000299 0.08333333333333333 0  0.2788556548905322 0.08333333333333333 0  0.308658283817491 0.08333333333333333 0  0.339280267348458 0.08333333333333333 0  0.3705904774487813 0.08333333333333333 0  0.4024548389919803 0.08333333333333333 0  0.4347369038900211 0.08333333333333333 0  0.467298435384978 0.08333333333333333 0  0.5000000000000517 0.08333333333333333 0  0.5327015646151253 0.08333333333333333 0  0.5652630961100813 0.08333333333333333 0  0.5975451610081212 0.08333333333333333 0  0.6294095225513188 0.08333333333333333 0  0.6607197326516399 0.08333333333333333 0  0.6913417161826045 0.08333333333333333 0  0.7211443451095605 0.08333333333333333 0  0.7500000000000597 0.08333333333333333 0  0.7777851165098603 0.08333333333333333 0  0.8043807145044185 0.08333333333333333 0  0.829672907550091 0.08333333333333333 0  0.8535533905933287 0.08333333333333333 0  0.8759199037395413 0.08333333333333333 0  0.8966766701456674 0.08333333333333333 0  0.9157348061513193 0.08333333333333333 0  0.9330127018922625 0.08333333333333333 0  0.9484363707663832 0.08333333333333333 0  0.961939766255678 0.08333333333333333 0  0.9734650647475827 0.08333333333333333 0  0.9829629131445586 0.08333333333333333 0  0.9903926402016341 0.08333333333333333 0  0.9957224306869181 0.08333333333333333 0  0.9989294616193084 0.08333333333333333 0  1 0.08333333333333333 0  0 0.1041666666666667 0  0.001070538380698371 0.1041666666666667 0  0.004277569313095364 0.1041666666666667 0  0.009607359798386061 0.1041666666666667 0  0.01703708685546806 0.1041666666666667 0  0.02653493525245065 0.1041666666666667 0  0.03806023374436157 0.1041666666666667 0  0.05156362923366253 0.1041666666666667 0  0.06698729810778931 0.1041666666666667 0  0.08426519384873815 0.1041666666666667 0  0.1033233298543955 0.1041666666666667 0  0.1240800962605269 0.1041666666666667 0  0.1464466094067445 0.1041666666666667 0  0.1703270924499866 0.1041666666666667 0  0.1956192854956637 0.1041666666666667 0  0.2222148834902257 0.1041666666666667 0  0.2500000000000299 0.1041666666666667 0  0.2788556548905322 0.1041666666666667 0  0.308658283817491 0.1041666666666667 0  0.339280267348458 0.1041666666666667 0  0.3705904774487813 0.1041666666666667 0  0.4024548389919803 0.1041666666666667 0  0.4347369038900211 0.1041666666666667 0  0.467298435384978 0.1041666666666667 0  0.5000000000000517 0.1041666666666667 0  0.5327015646151253 0.1041666666666667 0  0.5652630961100813 0.1041666666666667 0  0.5975451610081212 0.1041666666666667 0  0.62
[...]
<PointData  Scalars="f_8591041"> 
<DataArray  type="Float64"  Name="f_8591041"  format="ascii">2.9515730145772653e+02  2.9516002402151236e+02  2.9515832848571398e+02  2.9514313750255451e+02  2.9509513762370591e+02  2.9496929945134184e+02  2.9469109897709336e+02  2.9427437585038820e+02  2.9358039012100824e+02  2.9292244501990103e+02  2.9205287350531853e+02  2.9047616731699901e+02  2.8897192867325259e+02  2.8788412094067860e+02  2.8665123719882604e+02  2.8300453927584425e+02  2.8119013348336711e+02  2.7858994974846291e+02  2.7650741379834699e+02  2.7309585537781788e+02  2.6941491128576661e+02  2.6735313410088986e+02  2.6573707897769248e+02  2.6262303116323500e+02  2.5878247266632627e+02  2.5624975949800120e+02  2.5417431559540293e+02  2.5151961353765000e+02  2.4907900020117040e+02  2.4605250839557544e+02  2.4321350284427493e+02  2.4085291894578174e+02  2.3844272463253131e+02  2.3659011621342972e+02  2.3453680274167846e+02  2.3299668892530360e+02  2.3167310514020647e+02  2.3043647468154052e+02  2.2937500722416195e+02  2.2848911607005539e+02  2.2785310870656005e+02  2.2743188588411635e+02  2.2711262001468819e+02  2.2690083575346830e+02  2.2678552019591748e+02  2.2672480152435324e+02  2.2669873319468309e+02  2.2669174768798095e+02  2.2669022788006356e+02  2.9535254082582122e+02  2.9534932275179858e+02  2.9535033602176031e+02  2.9535509835507975e+02  2.9534170162343958e+02  2.9525712027087548e+02  2.9502122443551644e+02  2.9464928717289297e+02  2.9390818577252367e+02  2.9314724707800741e+02  2.9223204185399396e+02  2.9040032369933152e+02  2.8916842501669953e+02  2.8805558686339486e+02  2.8686880671783609e+02  2.8294994425811649e+02  2.8129911731409499e+02  2.7856974610222244e+02  2.7636045904799948e+02  2.7362348769787059e+02  2.6932966797449552e+02  2.6731622546599789e+02  2.6567343977019277e+02  2.6303669252806287e+02  2.5861522037066834e+02  2.5616105451148752e+02  2.5407868283468781e+02  2.5151005961374352e+02  2.4900700713372811e+02  2.4601779989935653e+02  2.4316579758115094e+02  2.4087371873065263e+02  2.3854299375227140e+02  2.3694313467727702e+02  2.3453387528319149e+02  2.3278832390307062e+02  2.3150540487699186e+02  2.3047623180433979e+02  2.2938087425472028e+02  2.2865296869356797e+02  2.2777786814185814e+02  2.2730770516128581e+02  2.2693827610082187e+02  2.2675870903419332e+02  2.2670138449094154e+02  2.2670732944915699e+02  2.2672966332356162e+02  2.2674200149241400e+02  2.2674781196851472e+02  2.9541905738955478e+02  2.9542029320881591e+02  2.9542420098676058e+02  2.9543593017495238e+02  2.9544999601540411e+02  2.9543152355077893e+02  2.9532953930600110e+02  2.9502516742479003e+02  2.9430498386357897e+02  2.9365942900544280e+02  2.9299218499509590e+02  2.9037072445215313e+02  2.8939172762676048e+02  2.8841566295495772e+02  2.8719623117145051e+02  2.8294425291105728e+02  2.8138286084682329e+02  2.7862638979822566e+02  2.7623882628352254e+02  2.7416602187269069e+02  2.6923045190722661e+02  2.6727166000584447e+02  2.6563862443361955e+02  2.6344924603491853e+02  2.5840653272452977e+02  2.5604992636536969e+02  2.5396237103056117e+02  2.5146171929835370e+02  2.4893708684690225e+02  2.4594294267515559e+02  2.4316572303615649e+02  2.4094645797137602e+02  2.3859831775813629e+02  2.3724344683134203e+02  2.3526410764759603e+02  2.3246609980117103e+02  2.3142190301130040e+02  2.3054189060909852e+02  2.2945465723109666e+02  2.2888749780791468e+02  2.2815709827186257e+02  2.2729350930633802e+02  2.2708424345902705e+02  2.2704059938085803e+02  2.2706873693608910e+02  2.2711223662596635e+02  2.2713898954052522e+02  2.2714262119343903e+02  2.2713613068076052e+02  2.9532572544549140e+02  2.9532455798554287e+02  2.9532836495970940e+02  2.9534098491456086e+02  2.9535858654916245e+02  2.9536342499945766e+02  2.9530547483948698e+02  2.9505543924938911e+02  2.9440725741616939e+02  2.9382113587201206e+02  2.9340378287959982e+02  2.9052255281820391e+02  2.8954755880427251e+02  2.8865632544304179e+02  2.8747070216521320e+02  2.8295990359175170e+02  2.8140314678332680e+02  2.7864900566337479e+02  2.7621487523404238e+02  2.7438231465673448e+02  2.6916354028001280e+02  2.6724251596081399e+02  2.6563725687092881e+02  2.6358575048163857e+02  2.5829865493478877e+02  2.5597367450205638e+02  2.5390316131616618e+02  2.5141376733025237e+02  2.4891128084103786e+02  2.4587370463122443e+02  2.4318475184923938e+02  2.4098813138097381e+02  2.3866138787325059e+02  2.3740938080678043e+02  2.3571896132114307e+02  2.3231988704004183e+02  2.3149493275134273e+02  2.3067050826400938e+02  2.2963194300785767e+02  2.2912006965108841e+02  2.2851714730838452e+02  2.2757394726323923e+02  2.2754289481879309e+02  2.2756471346475371e+02  2.2761947959883540e+02  2.2765980089881023e+02  2.2767719380315532e+02  2.2768271667055805e+02  2.2768604506840910e+02  2.9494279211225512e+02  2.9494420689290092e+02  2.9495366953341028e+02  2.9497403923470347e+02  2.9500134664351231e+02  2.9501594535721512e+02  2.9498016935239195e+02  2.9481745069392719e+02  2.9437853807021196e+02  2.9385226032285152e+02  2.9349104142776611e+02  2.9062163521123517e+02  2.8962751650441373e+02  2.8875118325649777e+02  2.8766896858934081e+02  2.8296811150341415e+02  2.8140368499336051e+02  2.7861193428787504e+02  2.7618460644078613e+02  2.7442407779006868e+02  2.6913657834640190e+02  2.6721534205166012e+02  2.6562901522207579e+02  2.6360768567967199e+02  2.5827497336518280e+02  2.5593155289715665e+02  2.5387043653197159e+02  2.5139193102735473e+02  2.4893929119462229e+02  2.4585061277383218e+02  2.4322307485302952e+02  2.4103277492762444e+02  2.3875570683263450e+02  2.3759474469041390e+02  2.3604294320820355e+02  2.3235316917014637e+02  2.3165370737269691e+02  2.3086673773464256e+02  2.2992630525745642e+02  2.2939519258304011e+02  2.2884184262736099e+02  2.2800784707908298e+02  2.2804130803748194e+02  2.2814502711939133e+02  2.2824638672962067e+02  2.2829403388310453e+02  2.2831818801584882e+02  2.2832414159195190e+02  2.2832324774063153e+02  2.9453816354094710e+02  2.9454096385222761e+02  2.9454684128189075e+02  2.9456495784251985e+02  2.9459345440396316e+02  2.9461434128874436e+02  2.9459142552192452e+02  2.9446762960452827e+02  2.9419492219441230e+02  2.9374200945816511e+02  2.9328915469274517e+02  2.9062473282042669e+02  2.8960112028515749e+02  2.8870439846196479e+02  2.8768661427598244e+02  2.8291820780050222e+02  2.8134468514077622e+02  2.7849575405361804e+02  2.7609938207656603e+02  2.7437180872457861e+02  2.6910344124842283e+02  2.6717147906894388e+02  2.6560019637021577e+02  2.6358962743089921e+02  2.5828453637572642e+02  2.5591974842799044e+02  2.5386944870733814e+02  2.5140558544293617e+02  2.4901514209331782e+02  2.4589127530269013e+02  2.4329810950686328e+02  2.4111914356304129e+02  2.3890430054253437e+02  2.3780743857807579e+02  2.3635258569138523e+02  2.3251892818412253e+02  2.3190486738072519e+02  2.3116901727449104e+02  2.3034675667658883e+02  2.2987614454247930e+02  2.2967012379867484e+02  2.2967147038153510e+02  2.2965172786129298e+02  2.2946562628107006e+02  2.2937503831866684e+02  2.2943029898420323e+02  2.2946759232251355e+02  2.2948182114912237e+02  2.2948542189698151e+02  2.9407176212182401e+02  2.9406605669911062e+02  2.9408367500828035e+02  2.9412436896159755e+02  2.9418129152938724e+02  2.9423247357803956e+02  2.9424175298995800e+02  2.9416134892417546e+02  2.9393665021266571e+02  2.9350493136201152e+02  2.9275580141636976e+02  2.9049290333560327e+02  2.8944353186295876e+02  2.8850804650395099e+02  2.8748314704847712e+02  2.8276529890987405e+02  2.8119158076433121e+02  2.7829421670403099e+02  2.7594225385539693e+02  2.7424021747532527e+02  2.6903935269464796e+02  2.6710505152419546e+02  2.6554687944969191e+02  2.6354951322250088e+02  2.5830637435365929e+02  2.5593859543877667e+02  2.5390265162027887e+02  2.5145981195877562e+02  2.4912680527925841e+02  2.4599458374440920e+02  2.4343017663419855e+02  2.4127421273719725e+02  2.3911902587933020e+02  2.3808300029845094e+02  2.3671511642945532e+02  2.3284921596758019e+02  2.3225643209814862e+02  2.3156758336448084e+02  2.3094108083384253e+02  2.3064799654603593e+02  2.3059815365026722e+02  2.3067102850461308e+02  2.3073283930415960e+02  2.3076745322845426e+02  2.3072981543670733e+02  2.3059879096990173e+02  2.3054698843251850e+02  2.3053384130024801e+02  2.3052532274899431e+02  2.9240964418732653e+02  2.9242089731086736e+02  2.9241981401582473e+02  2.9242253832657269e+02  2.9244316281550590e+02  2.9249023481925690e+02  2.9254208330103609e+02  2.9251939549250471e+02  2.9234782669109239e+02  2.9199640830113583e+02  2.9142975082514278e+02  2.9016322449862741e+02  2.8913907340749893e+02  2.8814606367728209e+02  2.8701330944490962e+02  2.8247180112192490e+02  2.8091476455243128e+02  2.7800636148149783e+02  2.7570147254888917e+02  2.7402809197327798e+02  2.6893252093955476e+02  2.6700912839520129e+02  2.6546544672375347e+02  2.6349207540791508e+02  2.5833255840263382e+02  2.5598568435306015e+02  2.5397150409381112e+02  2.5155705965274410e+02  2.4927369680956440e+02  2.4616040193710711e+02  2.4363500627375430e+02  2.4151397037274569e+02  2.3941013774138668e+02  2.3842028716757869e+02  2.3706902833091283e+02  2.3339062828043737e+02  2.3271223022976241e+02  2.3213369356022221e+02  2.3163468756000199e+02  2.3141622755723978e+02  2.3139392523514877e+02  2.3145966120684304e+02  2.3154257241382069e+02  2.3164397362855064e+02  2.3174346249576271e+02  2.3182656983177421e+02  2.3186605238815335e+02  2.3187498403484648e+02  2.3188557882442782e+02  2.9167554881165319e+02  2.9165838802533540e+02  2.9164474522582805e+02  2.9163243510908745e+02  2.9162629766553823e+02  2.9162908621179355e+02  2.9161537317168569e+02  2.9153215762415516e+02  2.9133316548899330e+02  2.9097579644681258e+02  2.9038427340807903e+02  2.8949423028610647e+02  2.8852821527025895e+02  2.8747296947257212e+02  2.8618639649830254e+02  2.8204226972851257e+02  2.8050171337156354e+02  2.7762403273358672e+02  2.7536786355930707e+02  2.7373240953715009e+02  2.6877581419759014e+02  2.6687923321431771e+02  2.6535422948355568e+02  2.6341678828227282e+02  2.5836138290907121e+02  2.5605965634216085e+02  2.5407679036431466e+02  2.5169888082398970e+02  2.4946020181024900e+02  2.4639146911490130e+02  2.4392366406320559e+02  2.4184830897623067e+02  2.3977733469398711e+02  2.3879861689872351e+02  2.3754268453037471e+02  2.3443005914018963e+02  2.3340107681781214e+02  2.3292235261842933e+02  2.3260053967647394e+02  2.3250091716134710e+02  2.3268555527230103e+02  2.3288195845980042e+02  2.3305331019526793e+02  2.3320171596772846e+02  2.3332126906897238e+02  2.3340440095402840e+02  2.3344689011402576e+02  2.3345597680794552e+02  2.3344817623840729e+02  2.9033470064419055e+02  2.9035341485357571e+02  2.9036586533191519e+02  2.9036844924857348e+02  2.9034043000886987e+02  2.9024783120395170e+02  2.9008008700384681e+02  2.8987596166542357e+02  2.8963853189022785e+02  2.8930969113437175e+02  2.8882744652212688e+02  2.8817938681445344e+02  2.8740743413448996e+02  2.8641275467444285e+02  2.8503040601851666e+02  2.8151999164750629e+02  2.7994752510685004e+02  2.7712625458986633e+02  2.7493525038078883e+02  2.7335307181077877e+02  2.6856542076121895e+02  2.6671339726503851e+02  2.6521238248734466e+02  2.6332230711680819e+02  2.5839470965199524e+02  2.5615968703149576e+02  2.5421866931125766e+02  2.5188648437016329e+02  2.4969311928324061e+02  2.4669245980635856e+02  2.4430439603796913e+02  2.4228829549087274e+02  2.4023206436309295e+02  2.3920304934625801e+02  2.3802089067489510e+02  2.3541308892697117e+02  2.3449010056951954e+02  2.3385800183940722e+02  2.3372880221151974e+02  2.3383161285117987e+02  2.3402266016385568e+02  2.3420433823865523e+02  2.3439494143510848e+02  2.3455441713741490e+02  2.3467835464053223e+02  2.3476532278372389e+02  2.3481246767454954e+02  2.3482803970942007e+02  2.3483087358505193e+02  2.8875369835665509e+02  2.8874080854343350e+02  2.8873714050005674e+02  2.8874403937354322e+02  2.8875436114793200e+02  2.8875600252532644e+02  2.8873111118973804e+02  2.8865024245031731e+02  2.8848255590978658e+02  2.8820283165140000e+02  2.8779771341122608e+02  2.8724503901784317e+02  2.8654285695010674e+02  2.8541687548386244e+02  2.8363710682603715e+02  2.8084770895385680e+02  2.7921646540131331e+02  2.7646778284042176e+02  2.7440882232217240e+02  2.7289339546357786e+02  2.6830000497060070e+02  2.6651174186411163e+02  2.6504023373964304e+02  2.6320821350862133e+02  2.5843551147466127e+02  2.5628540224590739e+02  2.5439689563148673e+02  2.5211997217861031e+02  2.4998374213273067e+02  2.4706690611664189e+02  2.4478289218747565e+02  2.4283971440143435e+02  2.4079193559035531e+02  2.3965198947804299e+02  2.3856636706603388e+02  2.3752253376906074e+02  2.3713160162569145e+02  2.3685275216074248e+02  2.3674946691904427e+02  2.3634077049682298e+02  2.3595793843127402e+02  2.3601021562821751e+02  2.3615941603183325e+02  2.3628329993578294e+02  2.3638545424088417e+02  2.3645390421136835e+02  2.3648812163273217e+02  2.3649534944355941e+02  2.3649246652956788e+02  2.8748204185888397e+02  2.8749089787005857e+02  2.8752660548413206e+02  2.8758128413101497e+02  2.8764130660906011e+02  2.8769040246652906e+02  2.8770634524871576e+02  2.8765719176664788e+02  2.8751400958120695e+02  2.8725875016831725e+02  2.8686932114326112e+02  2.8629562479999043e+02  2.8544840010910906e+02  2.8387000940951395e+02  2.8185326275559260e+02  2.7973753830898369e+02  2.7815146308218317e+02  2.7562384166350586e+02  2.7382729868922434e+02  2.7235518333173559e+02  2.6798361003063678e+02  2.6627631189601505e+02  2.6483926441720928e+02  2.6307507774322585e+02  2.5848701745197366e+02  2.5643713008472423e+02  2.5461098597237992e+02  2.5239847376554511e+02  2.5034353959813774e+02  2.4751726903190598e+02  2.4536711796455646e+02  2.4351706801303840e+02  2.4152757414234171e+02  2.4031423490262938e+02  2.3918984416910206e+02  2.3848202911005635e+02  2.3812914044302011e+02  2.3790094438492255e+02  2.3776904634170648e+02  2.3769786459308474e+02  2.3757542448714668e+02  2.3727010087446055e+02  2.3720619039192283e+02  2.3726948661847294e+02  2.3733762474821665e+02  2.3738852162738974e+02  2.3740874739873698e+02  2.3741389482042297e+02  2.3742101228315349e+02  2.8489020617984272e+02  2.8488715428777431e+02  2.8487200350664671e+02  2.8484148585065503e+02  2.8478886851420253e+02  2.8470817296767791e+02  2.8459873465785370e+02  2.8445593187690253e+02  2.8425995846459455e+02  2.8398266993358988e+02  2.8359938372227617e+02  2.8310428272544550e+02  2.8250013345765223e+02  2.8162775040210096e+02  2.8032081507805918e+02  2.7845013881881334e+02  2.7693823715644641e+02  2.7480079659857790e+02  2.7323987531577984e+02  2.7174388075674170e+02  2.6762945701485091e+02  2.6600996477812600e+02  2.6461186845132642e+02  2.6292382264995854e+02  2.5855315982894285e+02  2.5661554349893214e+02  2.5485994568140177e+02  2.5271993721439310e+02  2.5076964537265468e+02  2.4804387315975688e+02  2.4606647789719699e+02  2.4436677819703715e+02  2.4245113964623710e+02  2.4117863399315300e+02  2.3986618676730910e+02  2.3922725936505512e+02  2.3873634121560028e+02  2.3851423639518251e+02  2.3843940331230036e+02  2.3845948414597561e+02  2.3855462080257661e+02  2.3867234282102854e+02  2.3854974380089868e+02  2.3847136019925688e+02  2.3854560533328714e+02  2.3864727506376065e+02  2.3872764595913696e+02  2.3876401217477618e+02  2.3875383392624337e+02  2.8362622027277104e+02  2.8363105084982226e+02  2.8363308873215897e+02  2.8362126541932741e+02  2.8358519195546228e+02  2.8351864022778494e+02  2.8341450756595924e+02  2.8326202169316036e+02  2.8304710356509048e+02  2.8275254806331731e+02  2.8235992674281334e+02  2.8185304495136751e+02  2.8119432281469579e+02  2.8034952779976356e+02  2.7913884013733849e+02  2.7733327698802674e+02  2.7600859277512336e+02  2.7410504269385365e+02  2.7262772307632616e+02  2.7108904460794736e+02  2.6725204604083962e+02  2.6571516705056882e+02  2.6436094589467666e+02  2.6275478087604381e+02  2.5863949732795470e+02  2.5682241800261562e+02  2.5514567290344550e+02  2.5308038399405200e+02  2.5124906483524313e+02  2.4863580813602059e+02  2.4684244123788525e+02  2.4540953794254330e+02  2.4373924076483203e+02  2.4258027238774349e+02  2.4137884068178266e+02  2.4041118140333492e+02  2.3983738624576785e+02  2.3957427934733957e+02  2.3952644374489691e+02  2.3958464144054301e+02  2.3979278674251398e+02  2.4019740643384370e+02  2.4083228343890448e+02  2.4150883446268867e+02  2.4181736871921473e+02  2.4183005420598394e+02  2.4176021269346367e+02  2.4171701530815247e+02  2.4172189693349094e+02  2.8266251127575759e+02  2.8265336770342890e+02  2.8263981698165264e+02  2.8262126138442966e+02  2.8259266760869360e+02  2.8254386854899315e+02  2.8246056496223059e+02  2.8232691632675284e+02  2.8212666621068809e+02  2.8184336646773556e+02  2.8145983369377512e+02  2.8095509143660468e+02  2.8029908805699336e+02  2.7945176892229449e+02  2.7815140583722592e+02  2.7635845029612909e+02  2.7516320325187723e+02  2.7337479510129924e+02  2.7194118933875427e+02  2.7040457169676142e+02  2.6685149158124693e+02  2.6539406134920881e+02  2.6408880402435722e+02  2.6256682563370157e+02  2.5875215697789270e+02  2.5706175897327336e+02  2.5546815822238401e+02  2.5346670220074930e+02  2.5178196564394847e+02  2.4927248833926953e+02  2.4765697710709753e+02  2.4646347616749506e+02  2.4526783870807887e+02  2.4423427230424977e+02  2.4363729045960977e+02  2.4334999906922775e+02  2.4304004558624976e+02  2.4283441788874555e+02  2.4278719916582202e+02  2.4301310346702283e+02  2.4336708660452032e+02  2.4363611603775166e+02  2.4382705762784354e+02  2.4392548752138708e+02  2.4400266625393405e+02  2.4411416875867624e+02  2.4422128745668249e+02  2.4427057855212627e+02  2.4427802954572564e+02  2.8120141963161160e+02  2.8120800778069560e+02  2.8123273802299803e+02  2.8127048177380789e+02  2.8130300976789863e+02  2.8130503872315001e+02  2.8125507931098912e+02  2.8113900688118468e+02  2.8094609892405009e+02  2.8066426167719658e+02  2.8027772889684417e+02  2.7976498586319713e+02  2.7909431901051749e+02  2.7818709553073393e+02  2.7684027095288718e+02  2.7526398236871722e+02  2.7418365292726168e+02  2.7250464861455720e+02  2.7114327179580454e+02  2.6965492523516048e+02  2.6641488273873745e+02  2.6504745730923133e+02  2.6379630123519217e+02  2.6235846585309844e+02  2.5889455341257735e+02  2.5733809743232683e+02  2.5582432665132652e+02  2.5390211564032893e+02  2.5242110824823189e+02  2.4998277305030518e+02  2.4854438131184855e+02  2.4759465601936355e+02  2.4706982922910441e+02  2.4694651375354104e+02  2.4685693980362279e+02  2.4676666557430087e+02  2.4672064413735856e+02  2.4674555875601783e+02  2.4682354526822240e+02  2.4694024153454654e+02  2.4706080902710508e+02  2.4719752182372505e+02  2.4734869581613083e+02  2.4747602157352188e+02  2.4752983863185545e+02  2.4752459145320148e+02  2.4747133287296518e+02  2.4741702260887348e+02  2.4739104339485257e+02  2.7813172579528060e+02  2.7813103354050662e+02  2.7811492930357815e+02  2.7807172482302190e+02  2.7798822196364495e+02  2.7785934779693503e+02  2.7769034379270988e+02  2.7748390381800391e+02  2.7723244433679508e+02  2.7692279948228105e+02  2.7654259237163899e+02  2.7608266837830422e+02  2.7553517838435681e+02  2.7488523221608648e+02  2.7417665696021953e+02  2.7361019729573763e+02  2.7282116804984349e+02  2.7142428859653103e+02  2.7020130438693582e+02  2.6880703541486832e+02  2.6593237398151456e+02  2.6467296396386951e+02  2.6348319837823504e+02  2.6212787462935188e+02  2.5906471726408529e+02  2.5765134909756176e+02  2.5620802134061597e+02  2.5439329477764971e+02  2.5306775333812104e+02  2.5087653988040134e+02  2.4962688421302772e+02  2.4867337853568213e+02  2.4827738934277150e+02  2.4802605814171068e+02  2.4786106533296839e+02  2.4774574640726570e+02  2.4772238493033873e+02  2.4776445553560376e+02  2.4786821015416254e+02  2.4802829086944945e+02  2.4822508514284030e+02  2.4843104950522115e+02  2.4861324685026713e+02  2.4875109632979019e+02  2.4884420445745462e+02  2.4890282