<?xml version="1.0"?>
<VTKFile type="UnstructuredGrid"  version="0.1"  >
<UnstructuredGrid>
<Piece  NumberOfPoints="2401" NumberOfCells="4608">
<Points>
<DataArray  type="Float64"  NumberOfComponents="3"  format="ascii">0 0 0  0.001070538380698371 0 0  0.004277569313095364 0 0  0.009607359798386061 0 0  0.01703708685546806 0 0  0.02653493525245065 0 0  0.03806023374436157 0 0  0.05156362923366253 0 0  0.06698729810778931 0 0  0.08426519384873815 0 0  0.1033233298543955 0 0  0.1240800962605269 0 0  0.1464466094067445 0 0  0.1703270924499866 0 0  0.1956192854956637 0 0  0.2222148834902257 0 0  0.2500000000000299 0 0  0.2788556548905322 0 0  0.308658283817491 0 0  0.339280267348458 0 0  0.3705904774487813 0 0  0.4024548389919803 0 0  0.4347369038900211 0 0  0.467298435384978 0 0  0.5000000000000517 0 0  0.5327015646151253 0 0  0.5652630961100813 0 0  0.5975451610081212 0 0  0.6294095225513188 0 0  0.6607197326516399 0 0  0.6913417161826045 0 0  0.7211443451095605 0 0  0.7500000000000597 0 0  0.7777851165098603 0 0  0.8043807145044185 0 0  0.829672907550091 0 0  0.8535533905933287 0 0  0.8759199037395413 0 0  0.8966766701456674 0 0  0.9157348061513193 0 0  0.9330127018922625 0 0  0.9484363707663832 0 0  0.961939766255678 0 0  0.9734650647475827 0 0  0.9829629131445586 0 0  0.9903926402016341 0 0  0.9957224306869181 0 0  0.9989294616193084 0 0  1 0 0  0 0.02083333333333333 0  0.001070538380698371 0.02083333333333333 0  0.004277569313095364 0.02083333333333333 0  0.009607359798386061 0.02083333333333333 0  0.01703708685546806 0.02083333333333333 0  0.02653493525245065 0.02083333333333333 0  0.03806023374436157 0.02083333333333333 0  0.05156362923366253 0.02083333333333333 0  0.06698729810778931 0.02083333333333333 0  0.08426519384873815 0.02083333333333333 0  0.1033233298543955 0.02083333333333333 0  0.1240800962605269 0.02083333333333333 0  0.1464466094067445 0.02083333333333333 0  0.1703270924499866 0.02083333333333333 0  0.1956192854956637 0.02083333333333333 0  0.2222148834902257 0.02083333333333333 0  0.2500000000000299 0.02083333333333333 0  0.2788556548905322 0.02083333333333333 0  0.308658283817491 0.02083333333333333 0  0.339280267348458 0.02083333333333333 0  0.3705904774487813 0.02083333333333333 0  0.4024548389919803 0.02083333333333333 0  0.4347369038900211 0.02083333333333333 0  0.467298435384978 0.02083333333333333 0  0.5000000000000517 0.02083333333333333 0  0.5327015646151253 0.02083333333333333 0  0.5652630961100813 0.02083333333333333 0  0.5975451610081212 0.02083333333333333 0  0.6294095225513188 0.02083333333333333 0  0.6607197326516399 0.02083333333333333 0  0.6913417161826045 0.02083333333333333 0  0.7211443451095605 0.02083333333333333 0  0.7500000000000597 0.02083333333333333 0  0.7777851165098603 0.02083333333333333 0  0.8043807145044185 0.02083333333333333 0  0.829672907550091 0.02083333333333333 0  0.8535533905933287 0.02083333333333333 0  0.8759199037395413 0.02083333333333333 0  0.8966766701456674 0.02083333333333333 0  0.9157348061513193 0.02083333333333333 0  0.9330127018922625 0.02083333333333333 0  0.9484363707663832 0.02083333333333333 0  0.961939766255678 0.02083333333333333 0  0.9734650647475827 0.02083333333333333 0  0.9829629131445586 0.02083333333333333 0  0.9903926402016341 0.02083333333333333 0  0.9957224306869181 0.02083333333333333 0  0.9989294616193084 0.02083333333333333 0  1 0.02083333333333333 0  0 0.04166666666666666 0  0.001070538380698371 0.04166666666666666 0  0.004277569313095364 0.04166666666666666 0  0.009607359798386061 0.04166666666666666 0  0.01703708685546806 0.04166666666666666 0  0.02653493525245065 0.04166666666666666 0  0.03806023374436157 0.04166666666666666 0  0.05156362923366253 0.04166666666666666 0  0.06698729810778931 0.04166666666666666 0  0.08426519384873815 0.04166666666666666 0  0.1033233298543955 0.04166666666666666 0  0.1240800962605269 0.04166666666666666 0  0.1464466094067445 0.04166666666666666 0  0.1703270924499866 0.04166666666666666 0  0.1956192854956637 0.04166666666666666 0  0.2222148834902257 0.04166666666666666 0  0.2500000000000299 0.04166666666666666 0  0.2788556548905322 0.04166666666666666 0  0.308658283817491 0.04166666666666666 0  0.339280267348458 0.04166666666666666 0  0.3705904774487813 0.04166666666666666 0  0.4024548389919803 0.04166666666666666 0  0.4347369038900211 0.04166666666666666 0  0.467298435384978 0.04166666666666666 0  0.5000000000000517 0.04166666666666666 0  0.5327015646151253 0.04166666666666666 0  0.5652630961100813 0.04166666666666666 0  0.5975451610081212 0.04166666666666666 0  0.6294095225513188 0.04166666666666666 0  0.6607197326516399 0.04166666666666666 0  0.6913417161826045 0.04166666666666666 0  0.7211443451095605 0.04166666666666666 0  0.7500000000000597 0.04166666666666666 0  0.7777851165098603 0.04166666666666666 0  0.8043807145044185 0.04166666666666666 0  0.829672907550091 0.04166666666666666 0  0.8535533905933287 0.04166666666666666 0  0.8759199037395413 0.04166666666666666 0  0.8966766701456674 0.04166666666666666 0  0.9157348061513193 0.04166666666666666 0  0.9330127018922625 0.04166666666666666 0  0.9484363707663832 0.04166666666666666 0  0.961939766255678 0.04166666666666666 0  0.9734650647475827 0.04166666666666666 0  0.9829629131445586 0.04166666666666666 0  0.9903926402016341 0.04166666666666666 0  0.9957224306869181 0.04166666666666666 0  0.9989294616193084 0.04166666666666666 0  1 0.04166666666666666 0  0 0.0625 0  0.001070538380698371 0.0625 0  0.004277569313095364 0.0625 0  0.009607359798386061 0.0625 0  0.01703708685546806 0.0625 0  0.02653493525245065 0.0625 0  0.03806023374436157 0.0625 0  0.05156362923366253 0.0625 0  0.06698729810778931 0.0625 0  0.08426519384873815 0.0625 0  0.1033233298543955 0.0625 0  0.1240800962605269 0.0625 0  0.1464466094067445 0.0625 0  0.1703270924499866 0.0625 0  0.1956192854956637 0.0625 0  0.2222148834902257 0.0625 0  0.2500000000000299 0.0625 0  0.2788556548905322 0.0625 0  0.308658283817491 0.0625 0  0.339280267348458 0.0625 0  0.3705904774487813 0.0625 0  0.4024548389919803 0.0625 0  0.4347369038900211 0.0625 0  0.467298435384978 0.0625 0  0.5000000000000517 0.0625 0  0.5327015646151253 0.0625 0  0.5652630961100813 0.0625 0  0.5975451610081212 0.0625 0  0.6294095225513188 0.0625 0  0.6607197326516399 0.0625 0  0.6913417161826045 0.0625 0  0.7211443451095605 0.0625 0  0.7500000000000597 0.0625 0  0.7777851165098603 0.0625 0  0.8043807145044185 0.0625 0  0.829672907550091 0.0625 0  0.8535533905933287 0.0625 0  0.8759199037395413 0.0625 0  0.8966766701456674 0.0625 0  0.9157348061513193 0.0625 0  0.9330127018922625 0.0625 0  0.9484363707663832 0.0625 0  0.961939766255678 0.0625 0  0.9734650647475827 0.0625 0  0.9829629131445586 0.0625 0  0.9903926402016341 0.0625 0  0.9957224306869181 0.0625 0  0.9989294616193084 0.0625 0  1 0.0625 0  0 0.08333333333333333 0  0.001070538380698371 0.08333333333333333 0  0.004277569313095364 0.08333333333333333 0  0.009607359798386061 0.08333333333333333 0  0.01703708685546806 0.08333333333333333 0  0.02653493525245065 0.08333333333333333 0  0.03806023374436157 0.08333333333333333 0  0.05156362923366253 0.08333333333333333 0  0.06698729810778931 0.08333333333333333 0  0.08426519384873815 0.08333333333333333 0  0.1033233298543955 0.08333333333333333 0  0.1240800962605269 0.08333333333333333 0  0.1464466094067445 0.08333333333333333 0  0.1703270924499866 0.08333333333333333 0  0.1956192854956637 0.08333333333333333 0  0.2222148834902257 0.08333333333333333 0  0.2500000000000299 0.08333333333333333 0  0.2788556548905322 0.08333333333333333 0  0.308658283817491 0.08333333333333333 0  0.339280267348458 0.08333333333333333 0  0.3705904774487813 0.08333333333333333 0  0.4024548389919803 0.08333333333333333 0  0.4347369038900211 0.08333333333333333 0  0.467298435384978 0.08333333333333333 0  0.5000000000000517 0.08333333333333333 0  0.5327015646151253 0.08333333333333333 0  0.5652630961100813 0.08333333333333333 0  0.5975451610081212 0.08333333333333333 0  0.6294095225513188 0.08333333333333333 0  0.6607197326516399 0.08333333333333333 0  0.6913417161826045 0.08333333333333333 0  0.7211443451095605 0.08333333333333333 0  0.7500000000000597 0.08333333333333333 0  0.7777851165098603 0.08333333333333333 0  0.8043807145044185 0.08333333333333333 0  0.829672907550091 0.08333333333333333 0  0.8535533905933287 0.08333333333333333 0  0.8759199037395413 0.08333333333333333 0  0.8966766701456674 0.08333333333333333 0  0.9157348061513193 0.08333333333333333 0  0.9330127018922625 0.08333333333333333 0  0.9484363707663832 0.08333333333333333 0  0.961939766255678 0.08333333333333333 0  0.9734650647475827 0.08333333333333333 0  0.9829629131445586 0.08333333333333333 0  0.9903926402016341 0.08333333333333333 0  0.9957224306869181 0.08333333333333333 0  0.9989294616193084 0.08333333333333333 0  1 0.08333333333333333 0  0 0.1041666666666667 0  0.001070538380698371 0.1041666666666667 0  0.004277569313095364 0.1041666666666667 0  0.009607359798386061 0.1041666666666667 0  0.01703708685546806 0.1041666666666667 0  0.02653493525245065 0.1041666666666667 0  0.03806023374436157 0.1041666666666667 0  0.05156362923366253 0.1041666666666667 0  0.06698729810778931 0.1041666666666667 0  0.08426519384873815 0.1041666666666667 0  0.1033233298543955 0.1041666666666667 0  0.1240800962605269 0.1041666666666667 0  0.1464466094067445 0.1041666666666667 0  0.1703270924499866 0.1041666666666667 0  0.1956192854956637 0.1041666666666667 0  0.2222148834902257 0.1041666666666667 0  0.2500000000000299 0.1041666666666667 0  0.2788556548905322 0.1041666666666667 0  0.308658283817491 0.1041666666666667 0  0.339280267348458 0.1041666666666667 0  0.3705904774487813 0.1041666666666667 0  0.4024548389919803 0.1041666666666667 0  0.4347369038900211 0.1041666666666667 0  0.467298435384978 0.1041666666666667 0  0.5000000000000517 0.1041666666666667 0  0.5327015646151253 0.1041666666666667 0  0.5652630961100813 0.1041666666666667 0  0.5975451610081212 0.1041666666666667 0  0.62
[...]
<PointData  Scalars="f_8591011"> 
<DataArray  type="Float64"  Name="f_8591011"  format="ascii">2.0101082058555272e+02  2.0101314852394819e+02  2.0102381867445689e+02  2.0105680565782359e+02  2.0112573254683642e+02  2.0127644121440883e+02  2.0157366939641946e+02  2.0197140474562133e+02  2.0260794594703029e+02  2.0319557390993421e+02  2.0393240285457793e+02  2.0523665502482007e+02  2.0646643183650099e+02  2.0734300571505571e+02  2.0831763886779302e+02  2.1125774941936976e+02  2.1271547764402268e+02  2.1481539594722551e+02  2.1650263180459754e+02  2.1931927012367271e+02  2.2240232780687023e+02  2.2414101955430530e+02  2.2551694136934714e+02  2.2824850048223149e+02  2.3167691870298279e+02  2.3395870969422955e+02  2.3584791106208985e+02  2.3830953104062897e+02  2.4060584424631520e+02  2.4347808109590423e+02  2.4620284243311181e+02  2.4847868433226279e+02  2.5082573100235555e+02  2.5263495250566461e+02  2.5465163400275398e+02  2.5619018091308891e+02  2.5751444237104619e+02  2.5869782095014654e+02  2.5970008779223241e+02  2.6052086617119801e+02  2.6109803030313162e+02  2.6146018510518991e+02  2.6172168400736848e+02  2.6188228533073766e+02  2.6195408936890749e+02  2.6197607168079122e+02  2.6197548891940625e+02  2.6197471091873314e+02  2.6197904301783075e+02  2.0108807715243509e+02  2.0108767486252725e+02  2.0108359165482841e+02  2.0108066571269924e+02  2.0110436904331775e+02  2.0120441258637865e+02  2.0142925628572354e+02  2.0176157203796379e+02  2.0242180989914712e+02  2.0307498906450536e+02  2.0383050092941545e+02  2.0534707511692946e+02  2.0634483533763591e+02  2.0722853155164708e+02  2.0815924066252828e+02  2.1131213828058804e+02  2.1264087903169221e+02  2.1483430780643883e+02  2.1662186759235004e+02  2.1887330641656405e+02  2.2246849567486478e+02  2.2416490050623878e+02  2.2556122612865718e+02  2.2786769021714761e+02  2.3181917119965297e+02  2.3403096285407364e+02  2.3592718516517249e+02  2.3831009200167463e+02  2.4067373151404055e+02  2.4351685449540150e+02  2.4626315154632061e+02  2.4848326177118423e+02  2.5076478752751805e+02  2.5233549204298311e+02  2.5467699519416951e+02  2.5645567154859293e+02  2.5776897486783582e+02  2.5878415319786387e+02  2.5984674362030393e+02  2.6052509380632199e+02  2.6125066336671250e+02  2.6165018270542265e+02  2.6195779856438224e+02  2.6209542649002020e+02  2.6212927179331996e+02  2.6211576355222422e+02  2.6209588674903119e+02  2.6208638460189559e+02  2.6208154644549040e+02  2.0130781151371610e+02  2.0130699510285189e+02  2.0130636631156139e+02  2.0130336192810270e+02  2.0130331370046702e+02  2.0132954311257771e+02  2.0142272548231827e+02  2.0168604613156202e+02  2.0230655104309744e+02  2.0284331581622243e+02  2.0338679990786090e+02  2.0546269506709288e+02  2.0623404591597827e+02  2.0699840365414232e+02  2.0794550977376170e+02  2.1134637485334386e+02  2.1259550164039820e+02  2.1479796010684805e+02  2.1671730072765135e+02  2.1841212426227963e+02  2.2253709671448328e+02  2.2418539859569862e+02  2.2556822625818805e+02  2.2747410011673227e+02  2.3198604108141839e+02  2.3411413955279187e+02  2.3601703388730050e+02  2.3834227937453923e+02  2.4073559087362682e+02  2.4359695971004126e+02  2.4628652754843364e+02  2.4844629088081840e+02  2.5076216235445750e+02  2.5211398882423649e+02  2.5406840662466618e+02  2.5691517341344417e+02  2.5800008622368011e+02  2.5887597220357833e+02  2.5995454572087800e+02  2.6051906103931532e+02  2.6119580141532134e+02  2.6199291920326425e+02  2.6219635436436607e+02  2.6222552615893665e+02  2.6218454469773934e+02  2.6213110339381285e+02  2.6209784486883763e+02  2.6209027363976730e+02  2.6209311291840061e+02  2.0158158222108938e+02  2.0158344315753044e+02  2.0158188504086570e+02  2.0157687498796312e+02  2.0157260026245280e+02  2.0158318316187362e+02  2.0164821488889228e+02  2.0187447601268596e+02  2.0240674960068301e+02  2.0286728601357905e+02  2.0319657105014124e+02  2.0543636774701247e+02  2.0618515229038985e+02  2.0687612621164735e+02  2.0778976252396106e+02  2.1136801551788571e+02  2.1260313306635101e+02  2.1478952688452642e+02  2.1673346060381172e+02  2.1822341761038533e+02  2.2257209273061611e+02  2.2418655163812150e+02  2.2554204508954055e+02  2.2732341865390657e+02  2.3205525813897171e+02  2.3415994206496038e+02  2.3605019904082016e+02  2.3837104494206270e+02  2.4075289022565511e+02  2.4367059900614586e+02  2.4628781500758186e+02  2.4843615798792649e+02  2.5074794413672399e+02  2.5200729945792943e+02  2.5369703378828981e+02  2.5719122745080477e+02  2.5805639249351719e+02  2.5888407742500840e+02  2.5993897442135437e+02  2.6046500416031921e+02  2.6106154289559720e+02  2.6198002743389560e+02  2.6202071361346776e+02  2.6199501102404662e+02  2.6193873915741244e+02  2.6189642150398026e+02  2.6187793767905362e+02  2.6187377079935061e+02  2.6187305475843976e+02  2.0217326802937856e+02  2.0217074607319950e+02  2.0216134645431646e+02  2.0214385089271966e+02  2.0212293445175297e+02  2.0211517914841295e+02  2.0215007879888984e+02  2.0227923501968161e+02  2.0259951677852470e+02  2.0298069648845521e+02  2.0325645891522421e+02  2.0545559566894599e+02  2.0620714022880546e+02  2.0687852594968970e+02  2.0770301197919974e+02  2.1139812709963653e+02  2.1262867786900588e+02  2.1483009637247474e+02  2.1675563644843660e+02  2.1817817196334155e+02  2.2256859754773896e+02  2.2418055798997898e+02  2.2551660534922945e+02  2.2726843026276208e+02  2.3204199846619818e+02  2.3416812600113883e+02  2.3605336876940572e+02  2.3837056194822401e+02  2.4071475494413392e+02  2.4369664237945247e+02  2.4626800754693775e+02  2.4842327346602585e+02  2.5070256996313583e+02  2.5188033830839947e+02  2.5344920898984827e+02  2.5728644894409649e+02  2.5802790658679004e+02  2.5883478712411710e+02  2.5981788340712092e+02  2.6037426548488020e+02  2.6095920746618384e+02  2.6183274118107101e+02  2.6178703378464257e+02  2.6169009179834541e+02  2.6159822537457063e+02  2.6155153777179515e+02  2.6152751643512636e+02  2.6152061271053168e+02  2.6151979676138609e+02  2.0267936908796921e+02  2.0267760509450193e+02  2.0267230828608217e+02  2.0265585134568278e+02  2.0263044594259438e+02  2.0261073375498285e+02  2.0262472968626562e+02  2.0271297057555884e+02  2.0290521995249131e+02  2.0320773496559383e+02  2.0353974033567357e+02  2.0555972364182514e+02  2.0632048585658401e+02  2.0699751358824059e+02  2.0776212602257027e+02  2.1147515921428450e+02  2.1270248580440807e+02  2.1493360230315625e+02  2.1682161212726646e+02  2.1820878472673772e+02  2.2256590650039118e+02  2.2418318948246792e+02  2.2550346334337573e+02  2.2724301767832409e+02  2.3199213385461334e+02  2.3414165945031399e+02  2.3602117336073874e+02  2.3833186039515394e+02  2.4062629561854348e+02  2.4365734753904036e+02  2.4621037407254840e+02  2.4836916091805594e+02  2.5060426825993454e+02  2.5172698162458897e+02  2.5321394319987400e+02  2.5724600066704227e+02  2.5791050182171199e+02  2.5868814671128649e+02  2.5958782889055158e+02  2.6014470713545381e+02  2.6050526212229244e+02  2.6065818592179113e+02  2.6069267288185688e+02  2.6082372949268824e+02  2.6087268599472884e+02  2.6082665637749551e+02  2.6079836677163848e+02  2.6078826503589869e+02  2.6078666037877474e+02  2.0322873603960417e+02  2.0323250353991168e+02  2.0321637415948402e+02  2.0318218141807100e+02  2.0313419069670763e+02  2.0308837745069729e+02  2.0307227857529458e+02  2.0312061675425755e+02  2.0327159011886812e+02  2.0356626282503021e+02  2.0412050688503479e+02  2.0578617015733872e+02  2.0654678818680927e+02  2.0723807048498111e+02  2.0799572298653595e+02  2.1163372347022641e+02  2.1285099686615791e+02  2.1510383107090158e+02  2.1694405709504957e+02  2.1830195151577527e+02  2.2258427374091661e+02  2.2419920196589428e+02  2.2550544494659414e+02  2.2723043114423058e+02  2.3192364849557907e+02  2.3407973616868804e+02  2.3595066299291062e+02  2.3824924085369850e+02  2.4049822509106534e+02  2.4355297033590321e+02  2.4609418309131544e+02  2.4824632507463645e+02  2.5044104125969915e+02  2.5151280305081769e+02  2.5292833148486420e+02  2.5703797539974460e+02  2.5769384434908767e+02  2.5845274478760751e+02  2.5921774473197502e+02  2.5967208357223120e+02  2.5988048227947479e+02  2.5989807803331996e+02  2.5987998343115834e+02  2.5987634497439899e+02  2.5991326887246919e+02  2.6000935165211172e+02  2.6004473294461991e+02  2.6005305532602586e+02  2.6005846215075661e+02  2.0493715345197120e+02  2.0492794449805908e+02  2.0493033478861341e+02  2.0492789985820698e+02  2.0490534570076269e+02  2.0485154788319340e+02  2.0478160409981774e+02  2.0476128273854596e+02  2.0485022703441686e+02  2.0506587177769418e+02  2.0541805808218135e+02  2.0623228268954941e+02  2.0691113733335396e+02  2.0761523514542324e+02  2.0843728835132072e+02  2.1190283805263650e+02  2.1309689864800845e+02  2.1534088805438307e+02  2.1713157940442977e+02  2.1845749503169071e+02  2.2263296456658063e+02  2.2423407452309254e+02  2.2552500370748399e+02  2.2722563035952081e+02  2.3184302826258119e+02  2.3398406926225570e+02  2.3583979374962192e+02  2.3811962409705308e+02  2.4033049787133422e+02  2.4338291974162581e+02  2.4590300161686164e+02  2.4803760906871995e+02  2.5020128401733163e+02  2.5123803411276498e+02  2.5265354719830768e+02  2.5660966415591338e+02  2.5738304994751354e+02  2.5806917678017697e+02  2.5874537001912017e+02  2.5913254479834916e+02  2.5928787622581501e+02  2.5930536319620779e+02  2.5928268537147397e+02  2.5922781129228775e+02  2.5916450138541751e+02  2.5911030475812402e+02  2.5908478781154889e+02  2.5907858784287163e+02  2.5907047004619614e+02  2.0566621792431658e+02  2.0568201106107492e+02  2.0569328032138463e+02  2.0570040845229039e+02  2.0569691737705224e+02  2.0567749900204294e+02  2.0565988574054515e+02  2.0568551246067122e+02  2.0578996660653138e+02  2.0600448236418953e+02  2.0638159695995580e+02  2.0695196327057153e+02  2.0755409034229916e+02  2.0826569289842925e+02  2.0916080321052192e+02  2.1228148191429429e+02  2.1344987188452751e+02  2.1565136508670219e+02  2.1739104730918319e+02  2.1867716963494647e+02  2.2271733904806251e+02  2.2429109619172885e+02  2.2556295507088527e+02  2.2722833022105726e+02  2.3175117022632946e+02  2.3385537525192052e+02  2.3568722352942657e+02  2.3794086963715250e+02  2.4011840172918014e+02  2.4314396486466677e+02  2.4562497324256233e+02  2.4773158744194021e+02  2.4988494139658545e+02  2.5092767815117915e+02  2.5227106672871770e+02  2.5569961334497046e+02  2.5686133979431401e+02  2.5748171816515315e+02  2.5800137650392998e+02  2.5830900941979786e+02  2.5829264996415878e+02  2.5820387712246202e+02  2.5811038065473582e+02  2.5801921041580357e+02  2.5794131292566004e+02  2.5788486745769308e+02  2.5785498135465423e+02  2.5784888341259824e+02  2.5785565575983503e+02  2.0697042472299279e+02  2.0695205756299623e+02  2.0693877873334046e+02  2.0693008413383373e+02  2.0694164265184389e+02  2.0699982028375848e+02  2.0710856661427474e+02  2.0722895677916040e+02  2.0735483937430052e+02  2.0753155018264431e+02  2.0780881681163061e+02  2.0818880707815381e+02  2.0863949334430961e+02  2.0925360838891180e+02  2.1017721637689979e+02  2.1273597407874487e+02  2.1391666236338750e+02  2.1605251826169501e+02  2.1772750359368032e+02  2.1896090143213175e+02  2.2284003969902292e+02  2.2437146444803167e+02  2.2561947830702601e+02  2.2723906436860327e+02  2.3164582725337749e+02  2.3369394504564650e+02  2.3549228803251631e+02  2.3771128204010861e+02  2.3985508621443626e+02  2.4283131819589158e+02  2.4525135612269492e+02  2.4731695691970222e+02  2.4948086883708132e+02  2.5059299502920089e+02  2.5189391010984468e+02  2.5485960499176343e+02  2.5598434003524750e+02  2.5677591480521670e+02  2.5711093275599882e+02  2.5725213037154475e+02  2.5721021988889521e+02  2.5713353604711648e+02  2.5702735856563538e+02  2.5693166823417232e+02  2.5685392567779269e+02  2.5679668036331475e+02  2.5676439731166545e+02  2.5675294881241473e+02  2.5675005198097625e+02  2.0845749055844615e+02  2.0847105069775932e+02  2.0847355163310584e+02  2.0846019212534168e+02  2.0843152325921142e+02  2.0839196718263267e+02  2.0835529396985524e+02  2.0835009136637393e+02  2.0840180592903306e+02  2.0852733396462779e+02  2.0873624113036331e+02  2.0904613489840486e+02  2.0945519642979599e+02  2.1016555457343435e+02  2.1136343569156139e+02  2.1333742979780752e+02  2.1452879185553311e+02  2.1658185297167608e+02  2.1813814675709745e+02  2.1930638303636465e+02  2.2300175497420472e+02  2.2447471887149692e+02  2.2569383011607124e+02  2.2725763588213593e+02  2.3152379653293400e+02  2.3349970655273825e+02  2.3525480766391993e+02  2.3743041855759100e+02  2.3952942215619234e+02  2.4244167295583023e+02  2.4477663039195306e+02  2.4678810014313353e+02  2.4896889292195957e+02  2.5022553887560809e+02  2.5154329565041320e+02  2.5304462838159390e+02  2.5371653474274066e+02  2.5422047450885094e+02  2.5452786374305995e+02  2.5507695819982192e+02  2.5557352024005351e+02  2.5564012328412483e+02  2.5558247109483221e+02  2.5552662797638345e+02  2.5547322119159296e+02  2.5543535723532793e+02  2.5541558818139833e+02  2.5541158953957694e+02  2.5541418520500525e+02  2.0966149077836778e+02  2.0965107672007099e+02  2.0961666868296695e+02  2.0955904880035928e+02  2.0948236547602878e+02  2.0939448231988604e+02  2.0931316407514365e+02  2.0926905935811993e+02  2.0928766101685605e+02  2.0938202156266115e+02  2.0956991269887442e+02  2.0989100560136291e+02  2.1042018527484882e+02  2.1147119919274405e+02  2.1285598223715712e+02  2.1430727884281762e+02  2.1541862173911440e+02  2.1726479873981421e+02  2.1859531670294922e+02  2.1971257178127624e+02  2.2319891935531811e+02  2.2459893716890519e+02  2.2578436147349259e+02  2.2728302773596877e+02  2.3138164965957404e+02  2.3327197170855112e+02  2.3497497983354305e+02  2.3709908681716675e+02  2.3913007094289770e+02  2.4197322487354805e+02  2.4419428399362585e+02  2.4613275596446093e+02  2.4828643389888356e+02  2.4967689649244494e+02  2.5114158262859863e+02  2.5221577467001288e+02  2.5282478787705170e+02  2.5327689461452255e+02  2.5360261984283989e+02  2.5384118907133922e+02  2.5411886927510366e+02  2.5456368959127181e+02  2.5471727187957040e+02  2.5471664073062786e+02  2.5469455243765179e+02  2.5467220815864042e+02  2.5466379855732595e+02  2.5466162403718067e+02  2.5465609539377246e+02  2.1197071079610683e+02  2.1197601149335722e+02  2.1198779046771352e+02  2.1200232617437987e+02  2.1201854512510835e+02  2.1203646732558539e+02  2.1205468636865780e+02  2.1207712314526944e+02  2.1212147455926367e+02  2.1221277669268918e+02  2.1237349909616660e+02  2.1260977821076671e+02  2.1291848144890523e+02  2.1336680191086904e+02  2.1413844062958651e+02  2.1538805288554133e+02  2.1643296843351607e+02  2.1793943253908134e+02  2.1906339075748056e+02  2.2017522602391898e+02  2.2342092904134407e+02  2.2474160996129544e+02  2.2588869051526891e+02  2.2731388825383968e+02  2.3121526283076781e+02  2.3300981485323885e+02  2.3465369313326048e+02  2.3671939918922436e+02  2.3865982582322184e+02  2.4142664274670906e+02  2.4349798647482518e+02  2.4530955440279902e+02  2.4742838207957641e+02  2.4893328059971125e+02  2.5061545255467090e+02  2.5153848499129401e+02  2.5229012803273184e+02  2.5273924463525810e+02  2.5302039212322015e+02  2.5318626952735914e+02  2.5325857099239329e+02  2.5329946501227172e+02  2.5356259898059125e+02  2.5372999730851035e+02  2.5372598137151491e+02  2.5366970789513417e+02  2.5361518819774034e+02  2.5358775590263832e+02  2.5359470703185207e+02  2.1307901703205582e+02  2.1307317435931972e+02  2.1306686424649720e+02  2.1306334596838965e+02  2.1306433596427030e+02  2.1306955997095139e+02  2.1308233535087462e+02  2.1311109180773155e+02  2.1316784645001192e+02  2.1326817128717170e+02  2.1342975361530844e+02  2.1366945919967199e+02  2.1401669147575132e+02  2.1448292867263609e+02  2.1516951359573048e+02  2.1631233716906192e+02  2.1720614518010291e+02  2.1851454373779936e+02  2.1955458122308445e+02  2.2067180891476107e+02  2.2365658555585000e+02  2.2490053460173323e+02  2.2600394860632409e+02  2.2734921476083466e+02  2.3101879891098122e+02  2.3271113672186996e+02  2.3428868584998099e+02  2.3629531770400138e+02  2.3813168115766760e+02  2.4081488550486816e+02  2.4273371765022671e+02  2.4431123747509650e+02  2.4622818736618936e+02  2.4766586370876294e+02  2.4922894511249925e+02  2.5045809747504512e+02  2.5129558013194261e+02  2.5179376235343827e+02  2.5206258072439329e+02  2.5221111550341359e+02  2.5220739127565432e+02  2.5202134474601331e+02  2.5164104276990591e+02  2.5122876197492485e+02  2.5107677014571163e+02  2.5111655424235514e+02  2.5119114826421313e+02  2.5122808393130589e+02  2.5122461200942089e+02  2.1394674961624830e+02  2.1395653173446090e+02  2.1396565820931735e+02  2.1396895689079724e+02  2.1396373473909665e+02  2.1395218483030203e+02  2.1394316303828566e+02  2.1394976352518285e+02  2.1398681623461789e+02  2.1406993438657130e+02  2.1421593695481306e+02  2.1444500138302709e+02  2.1478218369327223e+02  2.1525349006701205e+02  2.1602395847160665e+02  2.1712708406707401e+02  2.1790569098553655e+02  2.1911247426022720e+02  2.2010217777805985e+02  2.2119172320650836e+02  2.2390640553586198e+02  2.2507366036414467e+02  2.2612749673429065e+02  2.2738898964466381e+02  2.3078517732400891e+02  2.3237064464809342e+02  2.3387867013694665e+02  2.3583996012859160e+02  2.3754410757714973e+02  2.4016064048999169e+02  2.4194035524602234e+02  2.4331960800757599e+02  2.4481037099951558e+02  2.4619139155407706e+02  2.4716746233725218e+02  2.4776553080855788e+02  2.4839070840719910e+02  2.4888678198991349e+02  2.4920048076602566e+02  2.4925007145602419e+02  2.4917651346736088e+02  2.4914893373948567e+02  2.4915325079536063e+02  2.4920897708267589e+02  2.4922430911608518e+02  2.4916881406421214e+02  2.4909009639751122e+02  2.4904615294372209e+02  2.4903634118829072e+02  2.1531692420700961e+02  2.1530776929494087e+02  2.1528046778661223e+02  2.1523020230867797e+02  2.1516382475901409e+02  2.1509685702511248e+02  2.1504543622570731e+02  2.1502257898918765e+02  2.1503915557634187e+02  2.1510721403357573e+02  2.1524218409212324e+02  2.1546438103303620e+02  2.1580083712731712e+02  2.1631102206175146e+02  2.1710835049393521e+02  2.1804562000411451e+02  2.1871483728244309e+02  2.1981745614259225e+02  2.2073478678884624e+02  2.2176188422614544e+02  2.2418097486951876e+02  2.2525995345631176e+02  2.2625750762337375e+02  2.2743293141858828e+02  2.3050835837790024e+02  2.3198070022810816e+02  2.3342397854348556e+02  2.3532690066510702e+02  2.3684018992299332e+02  2.3943646762993342e+02  2.4108170401299574e+02  2.4228925109316626e+02  2.4320657911225899e+02  2.4377516680284160e+02  2.4423568839004335e+02  2.4464000368639850e+02  2.4500674009043598e+02  2.4528890345982580e+02  2.4550524243607117e+02  2.4566511794287513e+02  2.4579235008307339e+02  2.4587055771753992e+02  2.4590157407075293e+02  2.4592129277293148e+02  2.4597201949329838e+02  2.4603541406957288e+02  2.4610780028035893e+02  2.4616180370829937e+02  2.4618883729312293e+02  2.1798686036841306e+02  2.1799081883149208e+02  2.1800174877544342e+02  2.1802087553404226e+02  2.1805093968866927e+02  2.1809003155217366e+02  2.1813134305316260e+02  2.1817269718007626e+02  2.1822183419122405e+02  2.1829230359307201e+02  2.1839814934617104e+02  2.1855134057802783e+02  2.1876241430245958e+02  2.1904415939559667e+02  2.1934232388134129e+02  2.1947635186027256e+02  2.1984659226408220e+02  2.2069892813330480e+02  2.2148257123742508e+02  2.2240854113701971e+02  2.2448857298346562e+02  2.2546096103794909e+02  2.2639209730311521e+02  2.2747958103534936e+02  2.3018618835187513e+02  2.3153662183266670e+02  2.3292461274519238e+02  2.3474521777779668e+02  2.3612728390247548e+02  2.3852884215950800e+02  2.4003235742886068e+02  2.4133013605446976e+02  2.4214860358508162e+02  2.4280487756479434e+02  2.4329859488309245e+02  2.4372635685000327e+02  2.4406405791224054e+02  2.4432773379314798e+02  2.4452009859937141e+02  2.4463789109724192e+02  2.4469348896307002e+02  2.4470692453814249e+02  2.4470327998902010e+02  2.4469972332278672e+02  2.4469796425470162e+02  2.4469334