<?xml version="1.0"?>
<VTKFile type="UnstructuredGrid"  version="0.1"  >
<UnstructuredGrid>
<Piece  NumberOfPoints="3160" NumberOfCells="5316">
<Points>
<DataArray  type="Float64"  NumberOfComponents="3"  format="ascii">1.25 0 0  1.249623523370255 0.03067653565364036 0  1.248494320256466 0.06133459290927252 0  1.246613070848363 0.09195570449958429 0  1.243980908340246 0.1225214254119508 0  1.240599418248387 0.1530133439990203 0  1.236470637455976 0.1834130930692022 0  1.231597052986177 0.2137023609503765 0  1.225981600504038 0.2438629025201603 0  1.219627662548161 0.2738765501960873 0  1.21253906649318 0.3037252248790798 0  1.2047200822443 0.333390946843623 0  1.196175419665261 0.3628558465680779 0  1.186910225741296 0.3921021754986144 0  1.176930081478776 0.4211123167402751 0  1.166240998543424 0.4498687956687352 0  1.154849415639108 0.4783542904563622 0  1.142762194629413 0.5065516425062373 0  1.129986616404304 0.5344438667878526 0  1.116530376494394 0.5620141620682582 0  1.102401580435444 0.5892459210324971 0  1.087608738885889 0.61612274028723 0  1.07216076250034 0.642628430241527 0  1.056066956562134 0.6687470248588714 0  1.039337015378182 0.6944627912745027 0  1.02198101643948 0.7197602392723067 0  1.004009414350806 0.7446241306155417 0  0.9854330345332579 0.7690394882257835 0  0.9662630667034212 0.7929916052045569 0  0.9465110581331058 0.8164660536922209 0  0.9261889066936989 0.8394486935587729 0  0.9053088536893338 0.8619256809213336 0  0.8838834764831844 0.8838834764831843 0  0.8619256809213337 0.9053088536893337 0  0.8394486935587729 0.9261889066936989 0  0.8164660536922209 0.9465110581331055 0  0.7929916052045569 0.9662630667034212 0  0.7690394882257835 0.9854330345332578 0  0.7446241306155419 1.004009414350806 0  0.7197602392723067 1.02198101643948 0  0.6944627912745028 1.039337015378182 0  0.6687470248588716 1.056066956562134 0  0.642628430241527 1.07216076250034 0  0.6161227402872301 1.087608738885889 0  0.5892459210324973 1.102401580435444 0  0.5620141620682583 1.116530376494394 0  0.5344438667878527 1.129986616404304 0  0.5065516425062373 1.142762194629413 0  0.4783542904563623 1.154849415639108 0  0.4498687956687353 1.166240998543424 0  0.4211123167402751 1.176930081478776 0  0.3921021754986145 1.186910225741296 0  0.3628558465680779 1.196175419665261 0  0.333390946843623 1.2047200822443 0  0.30372522487908 1.21253906649318 0  0.2738765501960872 1.219627662548161 0  0.2438629025201604 1.225981600504038 0  0.2137023609503767 1.231597052986177 0  0.1834130930692022 1.236470637455976 0  0.1530133439990203 1.240599418248387 0  0.122521425411951 1.243980908340246 0  0.09195570449958432 1.246613070848363 0  0.06133459290927266 1.248494320256466 0  0.03067653565364033 1.249623523370255 0  7.654042494670958e-17 1.25 0  -0.03067653565364018 1.249623523370255 0  -0.06133459290927251 1.248494320256466 0  -0.09195570449958416 1.246613070848363 0  -0.1225214254119508 1.243980908340246 0  -0.1530133439990202 1.240599418248387 0  -0.1834130930692021 1.236470637455976 0  -0.2137023609503766 1.231597052986177 0  -0.2438629025201602 1.225981600504038 0  -0.2738765501960871 1.219627662548161 0  -0.3037252248790798 1.21253906649318 0  -0.3333909468436229 1.2047200822443 0  -0.3628558465680777 1.196175419665261 0  -0.3921021754986143 1.186910225741296 0  -0.4211123167402749 1.176930081478776 0  -0.4498687956687352 1.166240998543424 0  -0.4783542904563621 1.154849415639108 0  -0.5065516425062372 1.142762194629413 0  -0.5344438667878524 1.129986616404304 0  -0.5620141620682584 1.116530376494394 0  -0.5892459210324972 1.102401580435444 0  -0.61612274028723 1.087608738885889 0  -0.642628430241527 1.07216076250034 0  -0.6687470248588713 1.056066956562134 0  -0.6944627912745025 1.039337015378182 0  -0.7197602392723067 1.02198101643948 0  -0.7446241306155417 1.004009414350806 0  -0.7690394882257834 0.9854330345332579 0  -0.7929916052045567 0.9662630667034213 0  -0.8164660536922207 0.9465110581331059 0  -0.8394486935587731 0.9261889066936988 0  -0.8619256809213337 0.9053088536893337 0  -0.8838834764831843 0.8838834764831844 0  -0.9053088536893334 0.8619256809213338 0  -0.9261889066936986 0.8394486935587732 0  -0.9465110581331058 0.8164660536922208 0  -0.9662630667034212 0.7929916052045569 0  -0.9854330345332578 0.7690394882257836 0  -1.004009414350806 0.7446241306155419 0  -1.02198101643948 0.7197602392723068 0  -1.039337015378182 0.6944627912745027 0  -1.056066956562134 0.6687470248588714 0  -1.07216076250034 0.6426284302415273 0  -1.087608738885889 0.6161227402872302 0  -1.102401580435444 0.5892459210324973 0  -1.116530376494394 0.5620141620682586 0  -1.129986616404304 0.5344438667878525 0  -1.142762194629413 0.5065516425062374 0  -1.154849415639108 0.4783542904563624 0  -1.166240998543424 0.4498687956687354 0  -1.176930081478776 0.4211123167402754 0  -1.186910225741296 0.3921021754986143 0  -1.196175419665261 0.362855846568078 0  -1.2047200822443 0.3333909468436231 0  -1.21253906649318 0.3037252248790801 0  -1.219627662548161 0.2738765501960876 0  -1.225981600504038 0.2438629025201608 0  -1.231597052986177 0.2137023609503765 0  -1.236470637455976 0.1834130930692023 0  -1.240599418248387 0.1530133439990204 0  -1.243980908340246 0.122521425411951 0  -1.246613070848363 0.09195570449958466 0  -1.248494320256466 0.06133459290927246 0  -1.249623523370255 0.03067653565364041 0  -1.25 1.530808498934192e-16 0  -1.249623523370255 -0.0306765356536401 0  -1.248494320256466 -0.06133459290927215 0  -1.246613070848363 -0.09195570449958437 0  -1.243980908340246 -0.1225214254119507 0  -1.240599418248387 -0.1530133439990201 0  -1.236470637455976 -0.183413093069202 0  -1.231597052986177 -0.2137023609503762 0  -1.225981600504038 -0.2438629025201605 0  -1.219627662548161 -0.2738765501960873 0  -1.21253906649318 -0.3037252248790798 0  -1.2047200822443 -0.3333909468436228 0  -1.196175419665261 -0.3628558465680776 0  -1.186910225741296 -0.392102175498614 0  -1.176930081478776 -0.4211123167402752 0  -1.166240998543424 -0.4498687956687352 0  -1.154849415639108 -0.4783542904563621 0  -1.142762194629413 -0.5065516425062371 0  -1.129986616404304 -0.5344438667878523 0  -1.116530376494394 -0.5620141620682583 0  -1.102401580435444 -0.5892459210324971 0  -1.087608738885889 -0.6161227402872299 0  -1.07216076250034 -0.6426284302415269 0  -1.056066956562134 -0.6687470248588712 0  -1.039337015378182 -0.6944627912745025 0  -1.02198101643948 -0.7197602392723067 0  -1.004009414350806 -0.7446241306155416 0  -0.9854330345332579 -0.7690394882257834 0  -0.9662630667034213 -0.7929916052045566 0  -0.946511058133106 -0.8164660536922207 0  -0.9261889066936989 -0.8394486935587731 0  -0.9053088536893338 -0.8619256809213336 0  -0.8838834764831847 -0.8838834764831843 0  -0.8619256809213338 -0.9053088536893334 0  -0.8394486935587733 -0.9261889066936986 0  -0.8164660536922214 -0.9465110581331053 0  -0.7929916052045574 -0.9662630667034209 0  -0.7690394882257841 -0.9854330345332574 0  -0.7446241306155414 -1.004009414350806 0  -0.7197602392723066 -1.02198101643948 0  -0.6944627912745027 -1.039337015378182 0  -0.6687470248588716 -1.056066956562134 0  -0.6426284302415273 -1.07216076250034 0  -0.6161227402872302 -1.087608738885889 0  -0.5892459210324973 -1.102401580435444 0  -0.5620141620682586 -1.116530376494394 0  -0.5344438667878531 -1.129986616404304 0  -0.506551642506238 -1.142762194629413 0  -0.4783542904563629 -1.154849415639108 0  -0.4498687956687349 -1.166240998543424 0  -0.4211123167402749 -1.176930081478776 0  -0.3921021754986143 -1.186910225741296 0  -0.3628558465680781 -1.196175419665261 0  -0.3333909468436231 -1.2047200822443 0  -0.3037252248790802 -1.21253906649318 0  -0.2738765501960876 -1.219627662548161 0  -0.2438629025201608 -1.225981600504038 0  -0.2137023609503771 -1.231597052986176 0  -0.1834130930692029 -1.236470637455976 0  -0.1530133439990199 -1.240599418248387 0  -0.1225214254119506 -1.243980908340246 0  -0.09195570449958419 -1.246613070848363 0  -0.06133459290927254 -1.248494320256466 0  -0.03067653565364049 -1.249623523370255 0  -2.296212748401287e-16 -1.25 0  0.03067653565364003 -1.249623523370255 0  0.06133459290927207 -1.248494320256466 0  0.09195570449958373 -1.246613070848363 0  0.1225214254119501 -1.243980908340246 0  0.1530133439990195 -1.240599418248387 0  0.1834130930692024 -1.236470637455976 0  0.2137023609503766 -1.231597052986177 0  0.2438629025201604 -1.225981600504038 0  0.2738765501960872 -1.219627662548161 0  0.3037252248790797 -1.21253906649318 0  0.3333909468436227 -1.2047200822443 0  0.3628558465680776 -1.196175419665261 0  0.3921021754986139 -1.186910225741296 0  0.4211123167402745 -1.176930081478776 0  0.4498687956687345 -1.166240998543424 0  0.4783542904563625 -1.154849415639108 0  0.5065516425062375 -1.142762194629413 0  0.5344438667878527 -1.129986616404304 0  0.5620141620682583 -1.116530376494394 0  0.589245921032497 -1.102401580435444 0  0.6161227402872298 -1.087608738885889 0  0.6426284302415269 -1.07216076250034 0  0.6687470248588712 -1.056066956562134 0  0.6944627912745023 -1.039337015378182 0  0.7197602392723061 -1.02198101643948 0  0.7446241306155411 -1.004009414350806 0  0.7690394882257838 -0.9854330345332576 0  0.792991605204557 -0.9662630667034211 0  0.8164660536922209 -0.9465110581331058 0  0.8394486935587729 -0.9261889066936989 0  0.8619256809213336 -0.9053088536893338 0  0.8838834764831842 -0.8838834764831847 0  0.9053088536893333 -0.8619256809213339 0  0.9261889066936986 -0.8394486935587733 0  0.9465110581331053 -0.8164660536922214 0  0.9662630667034209 -0.7929916052045574 0  0.9854330345332574 -0.7690394882257843 0  1.004009414350806 -0.7446241306155416 0  1.02198101643948 -0.7197602392723066 0  1.039337015378182 -0.6944627912745027 0  1.056066956562134 -0.6687470248588716 0  1.07216076250034 -0.6426284302415274 0  1.087608738885889 -0.6161227402872304 0  1.102401580435443 -0.5892459210324974 0  1.116530376494394 -0.5620141620682587 0  1.129986616404304 -0.5344438667878532 0  1.142762194629413 -0.50655164250623
[...]
<PointData  Scalars="f_3242542"> 
<DataArray  type="Float64"  Name="f_3242542"  format="ascii">-3.1642826909434567e+00  -3.3032806270260013e+00  -3.3819298374685793e+00  -3.4252664948965288e+00  -3.4610420637603041e+00  -3.5432204791066950e+00  -3.5343480850066671e+00  -3.6188654861449230e+00  -3.5889585133852462e+00  -3.6740635827087922e+00  -3.7555161257507796e+00  -3.7583359759816815e+00  -3.8862035977239908e+00  -3.8761553961714990e+00  -3.9792967653387579e+00  -3.9955505417585044e+00  -4.1256308078482657e+00  -4.1582277251482873e+00  -4.3072295656894344e+00  -4.2764385464920096e+00  -4.2945684020912305e+00  -4.3238683460122056e+00  -4.3182166661746217e+00  -4.4226801832331279e+00  -4.5466060812109532e+00  -4.5273146296335840e+00  -4.6939383813481363e+00  -4.6162466447937955e+00  -4.7381774025820800e+00  -4.7588605250672282e+00  -4.7942582497392401e+00  -4.9045015621734098e+00  -4.9406483903173246e+00  -4.9512449898651738e+00  -5.1313702372239431e+00  -5.0902093811163587e+00  -5.1510932345710527e+00  -5.3208814888888858e+00  -5.2293120532875301e+00  -5.5023769470704558e+00  -5.3284750463227661e+00  -5.5963036570772990e+00  -5.5367441291217743e+00  -5.7478011731382566e+00  -5.7146037608360407e+00  -5.7345741219300326e+00  -5.9524197848501341e+00  -5.7358396066260768e+00  -5.9850209774987144e+00  -5.8776880432158531e+00  -6.1298447035257828e+00  -5.8558276026889970e+00  -6.2914493315507478e+00  -6.0285950425418431e+00  -6.2253025133655617e+00  -6.2175433763619088e+00  -6.3102904330311294e+00  -6.1306494558545888e+00  -6.3616211797037820e+00  -6.0819331013909066e+00  -6.3024682953069311e+00  -6.2548385365748844e+00  -6.6329320393297735e+00  -6.1763326754232866e+00  -6.6444299229775927e+00  -6.1606958302829149e+00  -6.6086860989862952e+00  -6.4065682850687820e+00  -6.5762985668231719e+00  -6.4986594760284788e+00  -6.5101765415639470e+00  -6.8613410335199827e+00  -6.3857576082356324e+00  -6.8720332931941721e+00  -6.4653044249120137e+00  -6.7151634567211529e+00  -6.1842457839070768e+00  -7.2672881818488788e+00  -6.4671394319174276e+00  -7.1219560968438973e+00  -6.8021575534118357e+00  -6.9501351577285639e+00  -7.0966960213001640e+00  -6.9766925852503876e+00  -6.7841799164325707e+00  -7.2913762375141351e+00  -6.9822006508713903e+00  -6.8462346795369164e+00  -7.5953547805978614e+00  -7.1638626544868433e+00  -7.1822351902345396e+00  -6.9620218784913774e+00  -7.0727467783903037e+00  -6.9248254129271922e+00  -7.1593837565100014e+00  -7.3118978520393085e+00  -7.0939603982144757e+00  -7.6863499364014682e+00  -6.6925801105857339e+00  -6.8271573501279645e+00  -7.3591143750310728e+00  -7.7445061450427888e+00  -7.6669678742929905e+00  -7.5084024211244564e+00  -7.3782512370736679e+00  -7.8860783722454650e+00  -8.4333075419617902e+00  -8.5267812463657275e+00  -8.7017324338588349e+00  -8.5962834415911242e+00  -7.9558419766074664e+00  -7.8011054170458403e+00  -7.5633747020052304e+00  -5.6023975632777248e+00  -4.6634699403272659e+00  -4.4770604334782433e+00  -3.2500192155176784e+00  -1.6876468703817553e+00  -6.8790189586447659e-01  1.0780552583386658e+00  2.8632750388396344e+00  4.5226422799520112e+00  6.5116533203945250e+00  9.0311978727287574e+00  1.1043251561534820e+01  1.3404322293287562e+01  1.5975342272233219e+01  1.8444809208079782e+01  2.0846906100421574e+01  2.3299166771882142e+01  2.5667647146544006e+01  2.7929588032941393e+01  2.9951109167750253e+01  3.1575444838212125e+01  3.3132376019352215e+01  3.4358655195347730e+01  3.5699064916777019e+01  3.6563698891682883e+01  3.6765506155293068e+01  3.7271092917321511e+01  3.7658364485264286e+01  3.7496089779819052e+01  3.7557424075619409e+01  3.7517219732488250e+01  3.6707339593616183e+01  3.6407722651369255e+01  3.6040437384454471e+01  3.5225007027737874e+01  3.4473339565770175e+01  3.3532787521320401e+01  3.2769463916191562e+01  3.1628953116944768e+01  3.0966929822977605e+01  3.0438001781480004e+01  2.9740027887007450e+01  2.8844636586923286e+01  2.7992733209465751e+01  2.7028475746241764e+01  2.6012869972374975e+01  2.5106330926288255e+01  2.4631504710581474e+01  2.3391372879145358e+01  2.2716880237059076e+01  2.2024432325925289e+01  2.1202474003241175e+01  2.0265929571618418e+01  1.9497448454519372e+01  1.8930542435072226e+01  1.8168786585479527e+01  1.7581924055019215e+01  1.6898528002170881e+01  1.5957699934233336e+01  1.5412160529175070e+01  1.5051005277134539e+01  1.3772324270724578e+01  1.3609719498493284e+01  1.3785688189499501e+01  1.2057763242837071e+01  1.3221637358976210e+01  1.0719436491349478e+01  1.1422211106163671e+01  9.9200682889577383e+00  1.0170642901501360e+01  9.6410711989138917e+00  9.8419487133905097e+00  7.8934376432023381e+00  8.3898478488819652e+00  7.8049846769358622e+00  7.4906940374557616e+00  6.6029547962515078e+00  6.6160947590559145e+00  6.7232744755866980e+00  5.6680068830413655e+00  5.6573050446896209e+00  5.4609456692798020e+00  4.7590771225508890e+00  4.8050955363026393e+00  4.0330898637198640e+00  4.1454595708967004e+00  3.8151541088734953e+00  3.1570617337151341e+00  3.4300587909411089e+00  2.6686048245802820e+00  3.0314808994065077e+00  2.1941330961969618e+00  2.4578108102449461e+00  2.2634111692936942e+00  1.9918047195949713e+00  1.6870670107882140e+00  1.8397774231187283e+00  1.3630079479370742e+00  1.4272958919784346e+00  1.2902735081243539e+00  1.0740590234832295e+00  1.0457580034361624e+00  5.0584806186786690e-01  7.1996228803270068e-01  5.2938829526313014e-01  3.3128736468369258e-01  3.2636511786525524e-01  1.5546120262827587e-01  1.6687233673964663e-01  -8.0150242918870004e-02  -1.7386711698066842e-01  -2.0035482863181894e-01  -3.5913290941581544e-01  -4.4380996442924103e-01  -4.8574843471805790e-01  -8.5065735864584635e-01  -7.1394253262898399e-01  -9.5279704049703562e-01  -1.0112949469466328e+00  -1.1069509266616533e+00  -1.1618536033133338e+00  -1.4027297790746707e+00  -1.3409631943982967e+00  -1.5741360130338717e+00  -1.5149181179458022e+00  -1.6896573976873179e+00  -1.7655028664453731e+00  -1.8805982720006640e+00  -1.9055263425800788e+00  -2.1101569312954469e+00  -2.0820254386074661e+00  -2.2272202911484142e+00  -2.2680328947187345e+00  -2.3413579788287118e+00  -2.4282907949565744e+00  -2.5449328169840926e+00  -2.5907721930497623e+00  -2.6678575004668597e+00  -2.7303533805896114e+00  -2.8336395838536670e+00  -2.9248318117146774e+00  -3.0080247383508065e+00  -3.1205329857112138e+00  -4.1987421777873886e+00  -4.2791596012577946e+00  -3.8751302770663711e+00  -4.0708258675615436e+00  -3.9651976191200506e+00  -3.8839207547382428e+00  -3.7461542802904306e+00  -3.5711190393983978e+00  -3.4458270316338417e+00  -3.2752550097019806e+00  -3.2395256038758098e+00  -3.1546306203093284e+00  -3.0877645561033646e+00  -2.8290422090860146e+00  -2.7642206992295546e+00  -2.6941448363634528e+00  -2.5761590635637859e+00  -2.3831541418121085e+00  -2.3785768301707457e+00  -2.4301105754654713e+00  -2.1670886427850511e+00  -2.1815037040202876e+00  -2.1391209450627255e+00  -2.2606356384343886e+00  -1.8976650165535245e+00  -1.7514021294654152e+00  -1.5257930108885975e+00  -1.4904964999213699e+00  -1.4030622626034550e+00  -1.1700813630721516e+00  -1.2392917236362722e+00  -1.0053511428980304e+00  -8.9007062853723129e-01  -6.2053606442593634e-01  -6.3868083552798027e-01  -7.0228233815217422e-01  -7.0750602773349991e-02  -6.6411350589206164e-02  2.5938289973994604e-02  -4.2295116693728325e-02  2.5581359802962672e-01  4.0192327513723808e-01  6.9464715593646442e-01  1.0596164689768333e+00  1.2460268133293269e+00  1.4267782859397813e+00  2.0204682579763684e+00  1.9948600152200511e+00  2.0860159917719665e+00  2.3879250963478631e+00  2.7863100305057231e+00  3.2735926633799850e+00  3.4661022342862871e+00  3.7194617188527772e+00  4.2284729351326851e+00  4.4584740156671279e+00  4.8606010985842794e+00  5.4467322761519714e+00  5.5569197908377941e+00  5.9131778297126436e+00  6.4222584568282688e+00  7.0373276835631886e+00  7.3108834756403942e+00  7.8036998672404927e+00  7.9842915618644525e+00  8.6786387688432356e+00  8.8142330681602221e+00  9.1871750798265843e+00  9.3570318115958173e+00  1.0021604145322183e+01  1.1010455484044776e+01  1.1636933047621543e+01  1.1878765732715197e+01  1.2450632668030003e+01  1.3448214679663222e+01  1.3522404451359751e+01  1.4008959778426361e+01  1.5020807108015807e+01  1.5879377946449953e+01  1.6006330515495524e+01  1.6540910060785919e+01  1.8063459125146736e+01  1.8181060462328404e+01  1.8543815920148639e+01  1.9796248405925599e+01  2.0312663433378614e+01  2.0620733618663337e+01  2.1375849322579167e+01  2.2186310141377653e+01  2.3087667384009730e+01  2.3480751822282553e+01  2.4116938400634684e+01  2.4999068438161306e+01  2.5294986271873384e+01  2.7148100255094022e+01  2.7640942625538049e+01  2.8087421438624805e+01  2.8748924547553713e+01  2.9411489783863178e+01  3.0253187888776747e+01  3.0965417695946424e+01  3.2036653553983953e+01  3.2352039043066036e+01  3.3181134532723107e+01  3.4111653232773151e+01  3.4640327327507599e+01  3.5457554305090035e+01  3.5943399590258764e+01  3.6343843047447905e+01  3.6628711150037375e+01  3.7440935536215349e+01  3.7974545155755052e+01  3.7854835571191842e+01  3.8037192066561651e+01  3.8244951433113712e+01  3.7980703809331601e+01  3.7696892031166620e+01  3.7575513147493105e+01  3.7121957227134651e+01  3.6153633624374791e+01  3.5229975935578580e+01  3.4496905386339719e+01  3.3271005031470629e+01  3.1944389463661938e+01  3.0416305137203455e+01  2.8749162765860671e+01  2.6893622374390709e+01  2.5101932931434128e+01  2.3166434371965870e+01  2.0941923107353180e+01  1.8609128248570673e+01  1.6407993057034563e+01  1.4335440584333607e+01  1.2089874046824470e+01  1.0092261819651869e+01  8.3542103082537533e+00  6.2486089695882798e+00  4.2966871179381414e+00  3.0349060634067357e+00  1.5773528694275778e+00  3.1419309738790639e-02  -1.5490286830899349e+00  -2.4041014727951033e+00  -3.5524860003383365e+00  -4.6199636864276350e+00  -5.1433754962471427e+00  -5.6390712617383327e+00  -6.2831496277732048e+00  -7.8996596361067501e+00  -8.3194114492200253e+00  -8.3709321310740865e+00  -8.6578809439449795e+00  -9.1890567390272402e+00  -9.2166894683237945e+00  -9.3680221206017364e+00  -8.8233684683770051e+00  -8.5787409749777943e+00  -8.5121594155596796e+00  -8.6591142016642504e+00  -8.1600200059691606e+00  -8.2791090718919413e+00  -7.9737076677074494e+00  -7.8206721587467536e+00  -7.6749772574422606e+00  -7.7119169444733542e+00  -8.1665795931101002e+00  -7.2182329935810605e+00  -7.6013300653931495e+00  -7.9157795078037188e+00  -6.8518401086602889e+00  -7.4486576195020424e+00  -7.2987650298718032e+00  -7.7013866530063719e+00  -7.5387643919795861e+00  -7.5376893966350851e+00  -7.3967206051789596e+00  -7.3329691054634054e+00  -7.6009105545611400e+00  -8.0941256719350001e+00  -7.4126758318071548e+00  -7.3712556851571716e+00  -7.9161238308104700e+00  -7.4816823910628614e+00  -7.4256190174612069e+00  -7.6036780689845109e+00  -8.1532495043673219e+00  -7.2048854245088121e+00  -7.4613978817945856e+00  -7.4893734767659685e+00  -7.4796653071816017e+00  -6.7337088684325765e+00  -7.1847289599628050e+00  -7.2397523043369425e+00  -7.3051550323920793e+00  -7.4260296339216385e+00  -7.5439322400768987e+00  -7.3301675973242313e+00  -7.3316886577688791e+00  -7.3705149921412456e+00  -7.5642709347612378e+00  -7.3442161729095705e+00  -7.4973395128475282e+00  -7.3305494514945755e+00  -7.2432656834012850e+00  -6.9253660982913647e+00  -7.1528492371079651e+00  -7.1041689177560388e+00  -6.9859349302450475e+00  -7.1137997145347862e+00  -6.9922895428254472e+00  -6.9140746045499748e+00  -6.9409298158626731e+00  -7.0024361565222035e+00  -7.0063791761461989e+00  -7.1130025903843705e+00  -6.7099555361840881e+00  -6.6800543157420167e+00  -6.8362321980990357e+00  -6.5471208447453417e+00  -6.4479839509943320e+00  -6.4004358310535574e+00  -6.2236886680382550e+00  -6.3441163624078163e+00  -6.3262374527138050e+00  -6.2392788525491669e+00  -6.2837272009187384e+00  -6.2636433323725322e+00  -6.2869405858531184e+00  -6.0410557621783543e+00  -6.2813422083323118e+00  -6.1385437850750471e+00  -6.0625933716170053e+00  -5.3590728087883726e+00  -5.6884828243084913e+00  -5.6554139422212018e+00  -5.6745917058708653e+00  -5.6357299476551557e+00  -5.6002557774704584e+00  -5.6148252314808991e+00  -5.6970664575064163e+00  -5.4487145587625756e+00  -5.2982477833554196e+00  -5.3220786007876999e+00  -5.2754801941323093e+00  -5.1912341315248556e+00  -5.1272877565368447e+00  -4.9464658605738636e+00  -5.0384180993394203e+00  -4.9931933767413090e+00  -4.8822937236493393e+00  -4.8135823575561369e+00  -4.7309071985298337e+00  -4.6421752027007219e+00  -4.6054317589539000e+00  -4.3146837588590019e+00  -4.2162662768729549e+00  -2.8845282105907293e+00  -3.4798663288065459e+00  -2.1613301264174027e+00  -4.0578836811480601e+00  -1.3934352885439492e+00  -4.4664774206926285e+00  -5.2506767955855915e-01  -4.9267413341714503e+00  2.3074756047376696e-01  -5.4234882990338553e+00  1.1595682471008628e+00  -5.7845809323182698e+00  2.2056638470765937e+00  -6.0655742070396075e+00  3.6215758789833021e+00  -6.2193621634867329e+00  5.3692225163030587e+00  -6.2441269137923312e+00  -3.3036990131564554e+00  7.1539132910428247e+00  -2.5946141053477638e+00  -3.8218057887229411e+00  -1.8526836187750182e+00  -3.0342669103763682e+00  -1.5542839768793772e+00  -2.3398423027913551e+00  -3.5783922519682245e+00  -6.4327411130974079e+00  -1.1162559372326972e+00  -4.2655038611208376e+00  -4.0076376114980059e+00  8.7294867416619653e+00  -8.0063915685918186e-01  -4.7178387080727680e+00  -2.2121036131179467e-01  -4.4505400124221595e+00  -4.3880960219809070e-02  -3.0565932957859476e+00  -6.4266400973832720e+00  -3.5499209428003144e+00  -2.2349479740231093e+00  -2.6873567880262548e+00  -5.1523506285309999e+00  6.8135581167700865e-01  -4.0195616991185812e+00  -4.9605513932346890e+00  8.0406636904205742e-01  1.0573219668367599e+01  -1.4260568680343355e+00  -4.5426044447374467e+00  -6.1724988347301968e-01  -6.5994627333200198e+00  1.6613688179366699e+00  -5.6478123867549392e+00  -1.1360762426791593e+00  -1.8817316203979670e+00  1.2472649823352407e+01  -4.9447285618594377e+00  1.9186564557867214e-01  3.4241249627231529e-01  -5.3299325204828047e+00  -3.3885270619178161e+00  -3.9201497503174543e+00  1.7359028759943473e+00  -4.3034198200713414e+00  -4.7420583496712210e+00  -5.9897432952648098e+00  2.6525829687738893e+00  -6.6767096564268282e+00  -5.3984624017538891e+00  1.4296890448568234e+01  -3.4116460321747510e-01  -5.7411028045623373e+00  3.0429251528083157e+00  9.9476000838329659e-01  1.3640047682516807e+00  -6.8349439234325127e+00  -3.8264473739194633e+00  -2.4963598789442836e+00  -5.8041919555377230e+00  -6.2382678760149828e+00  4.4492736541305984e+00  -5.5556215376329714e+00  2.0437926117124436e+00  -3.2465772209057038e+00  1.6229251116638409e+01  4.3364894530237681e+00  -5.9406956824427999e+00  -4.2343917137978817e+00  -6.3418335709917795e+00  -5.1155647639556898e+00  -9.8496601245105431e-01  2.3895998346896463e+00  -1.7862183152142665e+00  -6.9597600939126485e+00  -6.1101042415089308e+00  3.2004130892445479e+00  -2.2829386962109341e-01  5.9670499115943549e+00  -4.6484244054338006e+00  1.8435405321380895e+01  -3.2736005967983202e+00  -3.7019330683203084e+00  -2.8162351074996690e+00  -6.1188825307075856e+00  -1.7382226904376892e+00  -2.4435675583683714e+00  -2.0285488316190805e+00  6.3720008307770684e+00  -4.2288173702911118e+00  -5.5434516871999477e+00  -2.6976057727584299e+00  -3.4425069591806636e+00  -6.7755057582881859e+00  -5.7137585892202623e+00  -4.1159137148714597e+00  -2.9683268485409249e+00  -6.1053713502564237e+00  -4.3468848886213864e+00  5.3061965760879923e+00  -6.2575968486019944e+00  -6.3497342578051592e+00  -3.1150723126692510e+00  -1.6530931697830660e+00  -3.8733271445323476e+00  3.6186822901434703e+00  2.0735545032377605e+01  -2.7027508842136254e+00  -2.3690782442629250e+00  -5.0728911725778669e+00  -3.1206117699943547e+00  -6.5288266082896156e+00  -1.6445961449461837e+00  4.9746615068751208e+00  -2.7928098889780197e+00  7.9002809957410953e+00  -2.5518403712812030e+00  -2.1025281831604916e+00  -6.9234144060652874e+00  7.7926971508920655e+00  -9.4779550914185695e-01  -1.2582033728975022e+00  -9.0426504846828959e-01  -4.8200113086235179e+00  -3.4743493825247405e+00  -3.7514289651031136e+00  -3.4047926094627541e+00  -1.4300238000540544e+00  -3.7329867125264835e+00  1.5574743539868916e+00  -4.8275951034465221e+00  -4.6764885008626411e+00  -2.0285858245929602e+00  6.4154564596837060e-01  -4.3637040730157519e+00  -3.9092488692987546e+00  -1.3333238269184216e+00  -4.2583741908208250e-01  -9.2715844135718928e-02  -4.3187968748931987e-01  -1.2507756739191060e+00  -6.3690252651328301e+00  8.6702949068664170e-01  -6.0239676827516089e+00  1.9647175034810685e-01  -3.5838000459368962e+00  -3.9402760781113790e+00  -4.1256031550615813e+00  -7.7605660661480202e-01  -2.2426493144591686e+00  -1.1249846655893969e+00  -5.1552923324232545e+00  -5.8568088538468839e+00  9.4192672446337351e+00  2.2481256501550451e+01  -6.3770968016598992e+00  -5.1382963541864770e+00  -4.5799919630217998e+00  -6.0869930562970398e-01  5.6450095246734888e-01  4.6113734823632047e-01  7.1888794040875215e-01  6.6601084778394588e+00  -4.5601314405577522e+00  -4.3964826561980095e+00  4.0731284357682120e-02  -4.0326595465891497e+00  1.9042897993602068e-02  -2.6441911962741138e-01  9.4885659739617818e+00  -7.0705408412927513e+00  -6.3948374807085839e+00  -5.2931254157447301e+00  -7.0699045913798131e-01  -3.3176832520520079e+00  -5.2813396519742408e+00  -2.6692377096184838e+00  5.1318899523182582e-01  -1.8286019927252521e+00  -6.5040302085421127e+00  -2.8173457348259543e+00  -3.8298995026600862e+00  -4.9340857928797597e+00  2.4344997165457595e+01  2.9786551678070667e+00  -4.4223373654133171e+00  -1.5216942472117219e+00  -2.7546169539595217e-01  -6.0940878194755941e+00  4.1292046833831736e-01  -6.3826894109132830e+00  9.0474620484502877e-01  -5.5889019125650137e+00  -5.7908046721958986e+00  -3.6117719985146066e+00  8.4911398310204600e+00  4.1531294039760134e+00  -4.7279479634955388e+00  -4.9988140922594928e+00  -7.1705013404191531e+00  -4.9026178947236918e+00  1.3972205237927979e+00  1.7602800487095964e+00  -6.8260958712762569e+00  -3.6247398597427427e+00  -3.1711835505788293e+00  -4.0011292165012629e+00  -1.9218416683195694e+00  -4.1895845529375810e+00  1.1627184132963063e+01  1.1119750987992218e+01  -5.0676333401425895e+00  -3.5003583861106167e+00  -2.2327909399054628e+00  4.0038317782616026e+00  -5.5205867042261580e+00  1.3052053353151102e+01  8.9564936691385022e-01  -6.6551119188538213e+00  2.6097848894047669e+01  -6.5716626245557164e+00  -5.6293612133418245e+00  -4.3183832250416065e+00  -4.2597261263588297e+00  -2.8255553465665839e+00  -1.1908973879278548e+00  -6.2897090454909046e+00  -4.2132135536736035e+00  1.3380028878500251e+01  -5.7082129189475488e+00  1.5303614119153173e+00  -6.1363833965017065e+00  -6.8978319462918565e+00  1.2544398793011926e+00  -1.5523145505740212e+00  1.8541684036122510e+00  -4.5911671351667067e+00  -6.0984746881111773e+00  2.5918930118016492e+00  1.0414246076130382e+01  2.9627200891646326e+00  2.2659260687422469e+00  -6.0953319148412568e+00  -5.9424916872944697e+00  2.7983140563978200e+01  -8.9841594646462331e-01  2.7852673554455465e+00  6.1827322040966415e+00  7.1907764127596376e+00  -5.4121933423389947e+00  -5.2969080073556594e+00  2.0946504474186360e+00  1.4484147505455778e+00  -4.1169415997906151e+00  -6.2175097561542829e+00  -3.1905815644394866e+00  -6.4781639619615365e+00  4.7958540554502764e-02  -6.2932471015141873e+00  1.4936796718345249e+01  -6.9279672416092017e+00  -4.5813477270580396e+00  -4.4562243018441459e+00  8.6806514054070103e+00  -5.6854794071428314e+00  -7.9368317045146286e-01  -5.2077971607295837e+00  -7.5655792594546254e+00  -6.7040907568236392e+00  1.1945422670236361e+01  2.6124506498094395e+00  4.7638923883192739e+00  -5.8794483909433577e+00  -2.3730312763238151e+00  1.9133894077199565e+00  -4.9716323727615430