<?xml version="1.0"?>
<VTKFile type="UnstructuredGrid"  version="0.1"  >
<UnstructuredGrid>
<Piece  NumberOfPoints="2912" NumberOfCells="5086">
<Points>
<DataArray  type="Float64"  NumberOfComponents="3"  format="ascii">-20 2.5 0  -20 0 0  -1 0 0  -0.9996988186962042 0.02454122852291233 0  -0.9987954562051724 0.04906767432741797 0  -0.9972904566786902 0.07356456359966773 0  -0.9951847266721968 0.09801714032956083 0  -0.99247953459871 0.1224106751992163 0  -0.989176509964781 0.1467304744553618 0  -0.9852776423889412 0.1709618887603012 0  -0.9807852804032304 0.1950903220161286 0  -0.9757021300385285 0.21910124015687 0  -0.970031253194544 0.2429801799032641 0  -0.9637760657954398 0.2667127574748985 0  -0.9569403357322088 0.2902846772544624 0  -0.9495281805930367 0.3136817403988914 0  -0.9415440651830207 0.3368898533922203 0  -0.9329927988347388 0.3598950365349883 0  -0.9238795325112867 0.3826834323650899 0  -0.9142097557035307 0.4052413140049899 0  -0.9039892931234433 0.427555093430282 0  -0.8932243011955152 0.4496113296546069 0  -0.8819212643483549 0.4713967368259979 0  -0.8700869911087113 0.4928981922297841 0  -0.857728610000272 0.5141027441932218 0  -0.8448535652497071 0.5349976198870972 0  -0.8314696123025453 0.5555702330196022 0  -0.8175848131515836 0.5758081914178454 0  -0.8032075314806448 0.5956993044924335 0  -0.7883464276266062 0.6152315905806269 0  -0.773010453362737 0.6343932841636455 0  -0.7572088465064846 0.6531728429537766 0  -0.7409511253549589 0.6715589548470186 0  -0.7242470829514668 0.6895405447370671 0  -0.7071067811865475 0.7071067811865476 0  -0.6895405447370669 0.7242470829514669 0  -0.6715589548470184 0.740951125354959 0  -0.6531728429537765 0.7572088465064847 0  -0.6343932841636454 0.7730104533627371 0  -0.6152315905806267 0.7883464276266063 0  -0.5956993044924334 0.8032075314806449 0  -0.5758081914178453 0.8175848131515837 0  -0.555570233019602 0.8314696123025455 0  -0.534997619887097 0.8448535652497072 0  -0.5141027441932217 0.8577286100002721 0  -0.492898192229784 0.8700869911087115 0  -0.4713967368259977 0.881921264348355 0  -0.4496113296546067 0.8932243011955152 0  -0.4275550934302819 0.9039892931234434 0  -0.4052413140049897 0.9142097557035307 0  -0.3826834323650897 0.9238795325112867 0  -0.3598950365349882 0.9329927988347388 0  -0.3368898533922199 0.9415440651830208 0  -0.3136817403988914 0.9495281805930367 0  -0.2902846772544622 0.9569403357322089 0  -0.2667127574748983 0.9637760657954398 0  -0.2429801799032639 0.970031253194544 0  -0.2191012401568697 0.9757021300385286 0  -0.1950903220161282 0.9807852804032304 0  -0.1709618887603012 0.9852776423889412 0  -0.1467304744553616 0.989176509964781 0  -0.1224106751992162 0.99247953459871 0  -0.09801714032956065 0.9951847266721969 0  -0.07356456359966733 0.9972904566786902 0  -0.04906767432741801 0.9987954562051724 0  -0.02454122852291214 0.9996988186962042 0  6.123233995736766e-17 1 0  0.02454122852291226 0.9996988186962042 0  0.04906767432741813 0.9987954562051724 0  0.07356456359966745 0.9972904566786902 0  0.09801714032956077 0.9951847266721968 0  0.1224106751992163 0.99247953459871 0  0.1467304744553617 0.989176509964781 0  0.1709618887603014 0.9852776423889412 0  0.1950903220161283 0.9807852804032304 0  0.2191012401568698 0.9757021300385286 0  0.242980179903264 0.970031253194544 0  0.2667127574748984 0.9637760657954398 0  0.2902846772544623 0.9569403357322089 0  0.3136817403988916 0.9495281805930367 0  0.3368898533922201 0.9415440651830208 0  0.3598950365349883 0.9329927988347388 0  0.3826834323650898 0.9238795325112867 0  0.4052413140049899 0.9142097557035307 0  0.4275550934302822 0.9039892931234433 0  0.4496113296546066 0.8932243011955153 0  0.4713967368259978 0.8819212643483549 0  0.4928981922297841 0.8700869911087113 0  0.5141027441932217 0.8577286100002721 0  0.5349976198870973 0.844853565249707 0  0.5555702330196023 0.8314696123025452 0  0.5758081914178453 0.8175848131515837 0  0.5956993044924335 0.8032075314806448 0  0.6152315905806268 0.7883464276266062 0  0.6343932841636455 0.773010453362737 0  0.6531728429537768 0.7572088465064845 0  0.6715589548470183 0.7409511253549591 0  0.6895405447370669 0.7242470829514669 0  0.7071067811865476 0.7071067811865475 0  0.724247082951467 0.6895405447370668 0  0.7409511253549591 0.6715589548470183 0  0.7572088465064846 0.6531728429537768 0  0.773010453362737 0.6343932841636455 0  0.7883464276266063 0.6152315905806268 0  0.8032075314806449 0.5956993044924334 0  0.8175848131515837 0.5758081914178453 0  0.8314696123025452 0.5555702330196022 0  0.8448535652497071 0.5349976198870972 0  0.8577286100002721 0.5141027441932217 0  0.8700869911087115 0.492898192229784 0  0.881921264348355 0.4713967368259976 0  0.8932243011955153 0.4496113296546065 0  0.9039892931234433 0.4275550934302821 0  0.9142097557035307 0.4052413140049899 0  0.9238795325112867 0.3826834323650898 0  0.932992798834739 0.3598950365349881 0  0.9415440651830208 0.3368898533922201 0  0.9495281805930367 0.3136817403988915 0  0.9569403357322088 0.2902846772544623 0  0.9637760657954398 0.2667127574748984 0  0.970031253194544 0.2429801799032639 0  0.9757021300385286 0.2191012401568698 0  0.9807852804032304 0.1950903220161282 0  0.9852776423889412 0.1709618887603012 0  0.989176509964781 0.1467304744553617 0  0.99247953459871 0.1224106751992162 0  0.9951847266721969 0.0980171403295606 0  0.9972904566786902 0.07356456359966743 0  0.9987954562051724 0.04906767432741801 0  0.9996988186962042 0.02454122852291229 0  1 0 0  20 0 0  20 2.5 0  0 2.5 0  -10 2.5 0  10 2.5 0  -10.5 0 0  -5 2.5 0  10.5 0 0  5 2.5 0  -5.75 0 0  5.75 0 0  -15.25 0 0  -15 2.5 0  15.25 0 0  15 2.5 0  -17.625 0 0  -17.5 2.5 0  17.5 2.5 0  17.625 0 0  12.5 2.5 0  12.875 0 0  -12.5 2.5 0  -12.875 0 0  -2.5 2.5 0  2.5 2.5 0  -8.125 0 0  -7.5 2.5 0  8.125 0 0  7.5 2.5 0  -3.375 0 0  3.375 0 0  -18.75 2.5 0  20 1.25 0  16.4375 1.19375 0  -16.25 2.5 0  13.75 2.5 0  -14.0625 0 0  -11.6875 0 0  11.6875 0 0  8.75 2.5 0  -8.75 2.5 0  6.9375 0 0  6.25 2.5 0  -6.25 2.5 0  -9.3125 0 0  -6.9375 0 0  9.3125 0 0  11.25 2.5 0  -11.25 2.5 0  3.75 2.5 0  4.5625 0 0  -4.5625 0 0  -3.75 2.5 0  -13.75 2.5 0  14.0625 0 0  -16.4375 0 0  -20 1.25 0  -18.8125 0 0  18.75 2.5 0  -18.21875 1.2359375 0  18.125 1.278125 0  -15.84375 1.2125 0  -14.375 1.30859375 0  14.65625 1.203125 0  2.1875 0 0  -2.1875 0 0  13.125 1.315625 0  3.125 1.315625 0  -3.125 1.315625 0  -12.28125 1.1890625 0  -5.15625 1.184375 0  11.09375 1.184375 0  5.625 1.325 0  -10.97262068800044 1.220713793599868 0  9.375 1.32734375 0  -6.875 1.32734375 0  -9.67626828410207 1.24449497187193 0  8.061334925608099 1.312208731402025 0  -8.188665074391901 1.312208731402025 0  -1.25 2.5 0  1.25 2.5 0  4.37465139623265 1.41327350462657 0  16.25 2.5 0  6.84375467392576 1.430449641528851 0  -1.846573640185365 1.334702047669377 0  1.846573640185365 1.334702047669377 0  -17.02955351149946 1.396129584721571 0  16.4375 0 0  18.8125 0 0  -13.31314667860176 1.511193493282891 0  -4.122005747945582 0.961844908681634 0  12.12799425205442 0.961844908681634 0  15.54930641305724 1.660405980876393 0  19.0578783583929 0.9559530595267438 0  8.71875 0.6864560603786576 0  -7.53125 0.6864560603786576 0  -0.6257799091428727 1.819008129832856 0  0.6257799091428734 1.819008129832855 0  6.291331569065717 0.7194652423646902 0  -19.11204717950418 0.9044926794710327 0  -4.488713231834613 1.772186102355655 0  11.76128676816539 1.772186102355655 0  -19.28185607205105 1.781856072051052 0  19.30868080343342 1.808680803433421 0  9.90625 0.6371857066656857 0  -6.34375 0.6371857066656857 0  3.796921710049233 0.7617406159238448 0  7.392020585015773 0.7480839107774819 0  -8.910372062800235 0.7929553447587234 0  10.2506781820361 1.451853913138859 0  -5.999321817963904 1.451853913138859 0  4.957643119381741 0.7716423099297361 0  17.29984375 0.8640625 0  15.41193625859067 0.8279888354083842 0  -13.72251704931534 0.7728002662082776 0  16.875 2.5 0  17.12178336313261 1.690954734835967 0  -11.64001625260176 1.74572103154608 0  2.477726735235857 0.7850262278604345 0  13.46875 0 0  13.765625 0.7802887470308788 0  -2.78125 0 0  -2.477726735235857 0.7850262278604346 0  -10.33383379274331 1.744431431923121 0  13.91957519050334 1.653419259628842 0  -15.08147780274903 0.8341506893754731 0  -15.14066649024666 1.671962869821843 0  -8.950686484882164 1.678622661163363 0  -17.55392917606836 0.794731598412167 0  -16.80247533599675 0.6688259240674158 0  -12.94289066923278 0.7766744225472476 0  -9.90625 0 0  -10.31601468672093 0.7730817089126454 0  -18.21875 0 0  -12.28125 0 0  -17.68515668569534 1.768907656575843 0  18.21875 0 0  10.85059123027421 1.880344717307101 0  -5.399408769725794 1.880344717307101 0  -3.738137326223278 1.749164834446819 0  -3.125 2.5 0  12.46235897590077 1.601301060091387 0  -11.09375 0 0  -11.61661448001209 0.7781698802173554 0  -15.625 2.5 0  -1.764022608759088 0.6027229563180789 0  1.59375 0 0  -8.125 2.5 0  8.125 2.5 0  8.713468311289519 1.727645658498745 0  9.375 2.5 0  -7.536531688710481 1.727645658498745 0  -6.875 2.5 0  14.375 2.5 0  17.78381794101733 1.874391370085592 0  18.59891476281433 1.80649740393129 0  -18.58835555265984 1.824268641341969 0  1.806126122135773 0.6510673837470153 0  -16.875 2.5 0  -16.36681393636619 1.755298393865037 0  -16.13072438662071 0.6014017614895231 0  -13.92460230791385 1.83195710210235 0  -14.40198779087891 0.6105385965811564 0  20 0.625 0  19.40625 0 0  14.6875 1.888836596385542 0  14.65625 0 0  12.78248197181444 0.6991460920542635 0  -3.467518028185561 0.6991460920542635 0  13.125 2.5 0  2.491957142932539 1.738660596534321 0  3.125 2.5 0  1.875 2.5 0  3.718973573227002 1.75927763286174 0  -2.491957142932539 1.738660596534321 0  -1.875 2.5 0  -9.375 2.5 0  6.2001972846108 1.772767401802766 0  5.625 2.5 0  5.027483518098582 1.760895488350309 0  5.625981449127788 0.6566963631252629 0  -12.30101114679273 1.859484693920165 0  9.742489932362783 1.884363450023167 0  -6.507510067637216 1.884363450023166 0  1.13492303295015 1.283502262067074
[...]
<PointData  Scalars="f_21639221"> 
<DataArray  type="Float64"  Name="f_21639221"  format="ascii">9.9999999999999722e-01  9.9999999999998346e-01  -4.5274066578882113e-04  -2.4330530235852163e-04  -1.7722987586604727e-04  -4.2057977940425026e-04  -3.0219580553694889e-04  -1.2825957497858740e-04  -1.5051005609677593e-04  -1.5627971375068871e-04  1.8204332333336506e-03  -2.7260961134204816e-04  -3.7927958226857515e-04  -3.0457883121267926e-04  -2.7566643057539954e-04  -1.5427873505456834e-04  -1.8638053039568672e-04  -1.6555610227961015e-04  -9.6045644689247427e-05  -2.3087057030568893e-06  1.6375515080094423e-05  -1.3564694729200403e-06  5.7275997133762861e-07  3.3979800453638554e-05  7.0246615888693614e-06  6.4352397751965543e-05  1.3394709468464596e-05  -2.2009543489967107e-05  9.9286708907308301e-05  1.2003480067961671e-05  8.1154403794957597e-05  7.3742735594270229e-05  6.7941630436348381e-05  9.9029489037127325e-05  7.6162743984441647e-05  4.3202516845578208e-05  1.2722401323224343e-04  1.2005855494186695e-04  1.1305306698272203e-04  1.1378393482078884e-04  2.4295862256481897e-04  1.8576284295103546e-04  1.7223907407454367e-04  2.1477015071577721e-04  3.1233510395366318e-04  3.4596306458832375e-04  5.7405467197996435e-03  6.5329519836358730e-04  2.0457404308574882e-04  2.0261316909131721e-04  2.8490725301523223e-04  3.8076721639370488e-04  2.7545701699908536e-04  2.7267630025900902e-04  3.6358620509378581e-04  5.0921333479634614e-04  4.4918359653931173e-04  4.5454797467494744e-04  4.8255833378105055e-04  4.1989894993527880e-04  4.2206132866383817e-04  4.3348403933358813e-04  5.4754341682982982e-04  5.1693431269124446e-04  4.2449200397595168e-04  4.1350941550439532e-04  4.3191857502630413e-04  4.5241694894631402e-04  6.9720287234826834e-04  3.6841302514453126e-04  3.6382537169856870e-04  5.6163295376690037e-04  5.1947872071646153e-04  3.9851914931633399e-04  3.8256806475346324e-04  5.4006977187424769e-04  4.5839070287919715e-04  5.3763180085254932e-04  1.0132404335406979e-02  5.2318116880875696e-04  3.4138822797507375e-04  2.4558315449776252e-04  2.2016953282757361e-04  3.5287904768985338e-04  3.1153963690408828e-04  3.4266123161492561e-04  2.2407543053835883e-04  1.6363891636858442e-04  1.7992478570516324e-04  3.0389448215661311e-04  1.6735042874359410e-04  1.5911011442573526e-04  1.3365919480256425e-04  1.7488271841663676e-04  1.0746302625824354e-04  1.1061419876134257e-04  7.7239579794089526e-05  1.2829733954316998e-04  1.0100092856058140e-04  6.4432056367452924e-05  1.6881947158961766e-04  1.0389132428453384e-05  3.0895710748772467e-05  8.0679796452295355e-05  4.4306061720376089e-05  4.8196265160676670e-05  6.7101275352633049e-05  4.2912717125396743e-05  -4.4809335509632640e-05  -5.4084954516787265e-05  -1.8137494295476643e-06  1.6784366332043917e-05  -1.0776772784993774e-04  -1.5575639039828293e-04  3.2951991515773386e-05  -2.1163360147579273e-04  -1.2203925477424876e-04  -6.6457992073966479e-05  -1.1670226327407276e-04  -2.9515611781323464e-05  -3.5539984736949131e-04  -2.0078449898322574e-04  -1.7929364798180842e-04  -1.0546208214013171e-04  -1.0606833559159145e-04  -2.0595416069927672e-04  -3.1870247181366450e-04  -3.8191947898417810e-04  -1.4910603874974514e-04  -1.2837335076837074e-04  -1.4483549442703748e-04  1.0000000250212655e+00  1.0000000003081613e+00  1.0144711979132113e+00  1.0000000235642179e+00  1.0000000098093382e+00  1.0000008105662088e+00  9.9986380734713376e-01  1.0000008408191472e+00  9.9984476896784524e-01  9.9986845429188531e-01  9.9988881436333232e-01  9.9999999896221781e-01  1.0000000000353662e+00  1.0000000239427751e+00  1.0000000003714100e+00  1.0000000000049096e+00  9.9999999999798528e-01  1.0000000003904745e+00  1.0000000251264207e+00  1.0000000027108364e+00  9.9999999713830667e-01  1.0000000011894554e+00  9.9999997196122714e-01  1.0014292412440211e+00  1.0011980398416087e+00  1.0000491791799460e+00  9.9999716541986527e-01  1.0000481354156054e+00  9.9999608710786136e-01  9.3808457939481071e-01  9.3774235565497754e-01  9.9999999999971023e-01  1.0000000189168752e+00  1.0000000194677059e+00  9.9999999999466949e-01  1.0000000006013499e+00  9.9999999302165099e-01  9.9999998073066654e-01  1.0000000058773038e+00  1.0000000781139249e+00  9.9999999292401742e-01  1.0001688873721217e+00  9.9997027882531297e-01  9.9998509552609793e-01  1.0000083115796092e+00  1.0001686726380989e+00  1.0000080011384764e+00  1.0000000207006488e+00  1.0000000120011312e+00  9.9932054421406324e-01  9.9294909950609866e-01  9.9305885616035650e-01  9.9987909310203160e-01  1.0000000002209100e+00  1.0000000180660036e+00  9.9999999991164368e-01  1.0000000000000127e+00  1.0000000000026357e+00  1.0000000003525855e+00  9.9999999999901468e-01  1.0000000186058260e+00  1.0000000001323481e+00  1.0000000017705353e+00  1.0000000200834989e+00  6.4865679953334920e-01  6.4739008907842543e-01  1.0000000258237463e+00  1.0401654039297745e+00  1.0386217714517556e+00  1.0000000026487113e+00  1.0007226513680250e+00  9.9999993098113671e-01  1.0002404453315616e+00  9.9999988088984448e-01  9.9999656779853574e-01  9.9994476719897163e-01  9.9999834930728992e-01  9.9998024592258083e-01  9.9998195236000509e-01  1.0055334130494176e+00  1.0051809019670286e+00  1.0058789762810902e+00  1.0000000002922995e+00  9.9991400408424802e-01  1.2149170973608072e+00  1.2119798949657588e+00  1.0000000000102187e+00  1.0000000249642365e+00  1.0000000251714563e+00  1.0000000100470570e+00  1.0003893237197059e+00  1.0000000063827250e+00  1.0000000146256798e+00  1.0000000215361307e+00  1.0000095816552039e+00  1.0000523441645903e+00  2.0288995100084182e+00  2.0257971639116548e+00  1.0001453421768369e+00  1.0000000000002252e+00  1.0048772314175416e+00  1.0000000483489200e+00  9.9999999999916467e-01  1.0000000121329071e+00  1.0000013734651030e+00  1.0001528269955684e+00  9.9061819249755489e-01  1.0000526380754633e+00  1.0000046713293083e+00  9.9999925116948918e-01  1.0000006712364433e+00  9.9961591339274813e-01  1.0000000221629675e+00  1.0000000221778780e+00  9.9999999591885513e-01  1.0000000003310101e+00  1.0000000138079250e+00  1.0000000275580356e+00  9.2065836219331920e-01  1.0000000099141257e+00  1.0000000189733036e+00  8.3951957938818178e-01  9.2177710349032571e-01  9.9999933352642567e-01  1.0000000199745014e+00  9.9999999971503206e-01  1.0000000008434828e+00  9.9999037154221893e-01  1.0000000000045273e+00  9.9999999999499678e-01  9.9999998873278162e-01  1.0000028188004433e+00  1.0000002633932079e+00  1.0000000000049705e+00  9.9999996015960846e-01  9.9999999999382239e-01  1.0000000250992724e+00  9.9999989892145003e-01  1.0001413730336903e+00  1.0218082691100399e+00  9.9620554541527251e-01  1.0000000400185407e+00  1.0000001417134481e+00  9.9999997024070575e-01  9.9999999996867484e-01  6.6278328978748269e-01  3.1421335443792509e-01  9.9999938768813701e-01  9.9999943719695739e-01  9.9998537596178638e-01  9.9999985714025508e-01  9.9992762390263945e-01  9.9999434952969057e-01  1.0000000004005392e+00  1.0000000111592136e+00  1.0000000121879415e+00  9.9999999999691291e-01  7.1104323450234685e-01  9.9999999999537925e-01  1.0000000000537099e+00  9.9999999991098598e-01  1.0000000058046685e+00  9.9999999761460245e-01  1.0000000234897755e+00  1.0000000250132022e+00  1.0000000126390818e+00  1.0000000220813998e+00  1.0000000065167394e+00  9.7998453583260314e-01  1.0000000007510041e+00  1.1618425205244147e+00  1.0030556942979496e+00  1.0071995429379961e+00  1.0224428146016715e+00  1.1595960316354437e+00  1.0234662821952938e+00  9.9999993221652395e-01  9.9981125401985016e-01  9.9989106092526081e-01  1.0013450253005045e+00  1.0000390197768816e+00  1.0000000351971059e+00  9.9999776408484709e-01  9.9980808017698519e-01  1.3575901412213056e+00  1.3817370807906835e+00  1.0000000030268099e+00  9.9802131967946905e-01  1.0000002324663659e+00  1.0000879345424454e+00  1.0000000119771164e+00  9.5232802903277625e-01  1.0000000247173222e+00  1.0000000235209277e+00  1.0000233987988256e+00  1.0000281442730676e+00  9.9992444533084368e-01  1.4739077589302301e+00  1.4688360772469524e+00  9.9999994419755533e-01  9.9999998467391948e-01  9.7704195678934502e-01  9.9999768461623617e-01  1.0000029520934544e+00  1.0000000235343489e+00  9.9999999999926770e-01  9.9999999990952915e-01  1.0000000000024207e+00  1.0000000000007292e+00  9.9999999999991029e-01  1.0000000000576039e+00  9.9999807905216342e-01  9.9940199071485114e-01  2.2026699080163916e+00  1.0000000442149806e+00  1.0000000003854475e+00  1.0000000060313310e+00  9.9999999999994049e-01  1.0000000067121355e+00  9.9933672336227108e-01  1.0164294841672381e+00  1.0100543242040019e+00  1.0000000003421634e+00  1.0000000000000351e+00  1.0000000111027121e+00  1.0000000003881881e+00  1.0000000118768515e+00  9.9997130573506032e-01  1.0000000002348726e+00  1.0000000555503126e+00  1.0000000238974758e+00  9.9825077231000203e-01  1.0000001806083305e+00  1.0000000223638501e+00  1.0000000020773891e+00  9.9997725692307959e-01  9.9996816810728795e-01  9.9999997156501630e-01  1.0001151028271724e+00  1.0000046024925240e+00  3.0837454262287323e-01  9.9999999714769716e-01  9.9999998492799236e-01  9.9826850248818788e-01  1.0000212703540665e+00  1.0000999933611159e+00  9.7651437734825342e-01  1.0001934979301055e+00  1.0000027997964795e+00  1.0001907110545385e+00  1.0000990318195757e+00  1.0000210128634270e+00  9.9999999998820488e-01  9.9999999967073627e-01  8.4233176326850934e-01  1.0000000251886447e+00  1.0551499565405145e+00  1.0000000293098184e+00  1.0535777660941659e+00  9.9996049173394019e-01  1.0000000000338813e+00  1.0000000238434910e+00  9.9448560952843001e-01  9.9999999959830721e-01  9.9999999999809319e-01  1.0001298397199019e+00  1.0000000204402051e+00  1.0036615743434087e+00  1.0000000178424751e+00  1.0000000091284638e+00  1.0000000038209000e+00  1.0000000211064648e+00  9.9977744329902851e-01  9.9999951357312400e-01  1.0000000215832003e+00  9.9986614704034682e-01  9.9999999999882994e-01  1.0025537978835486e+00  1.0000000008903782e+00  1.0119934726102744e+00  9.9999932177429607e-01  1.0000000097093302e+00  9.9997929610788905e-01  9.9999327729443588e-01  9.9987583926601231e-01  9.9999405251283169e-01  1.0000000485424523e+00  1.0000000000049061e+00  9.9997289517829013e-01  1.0000000238820290e+00  9.8989599457083122e-01  9.9999998854834293e-01  1.0000000080753979e+00  1.0000000189831790e+00  1.0113845728661937e+00  9.1800116961872791e-01  1.0010388485714721e+00  1.0000000205858663e+00  1.0000000184035767e+00  1.0000000163147107e+00  1.0069982949684440e+00  9.9999999999972289e-01  1.1833011724494098e+00  1.2426792536121396e+00  9.9999959438003605e-01  9.9996000456019030e-01  9.9999999154156827e-01  1.0000000170754737e+00  1.0000000246295411e+00  1.0000000227926833e+00  1.0000000120512886e+00  1.0000000003526324e+00  1.0000000211719171e+00  6.2866627297628452e-01  1.0000000211876512e+00  1.0661563349134204e+00  1.1018683274699461e+00  1.0000000000014981e+00  9.9999999999998934e-01  1.0000000000002982e+00  1.0000000000022364e+00  1.0000000070783284e+00  6.7690624702014568e-01  1.6828897399823950e+00  1.6829152573407340e+00  1.8493452333658476e+00  1.8443293258210773e+00  9.9999998193242223e-01  9.9999999839094689e-01  1.0000000239221938e+00  1.0062809916837439e+00  1.0000000146599604e+00  9.9999539670731408e-01  1.0000000192266667e+00  1.0000000243429998e+00  1.0000000060165599e+00  1.0000001172816082e+00  9.9915522558677439e-01  1.0000083572576488e+00  1.0000001891134049e+00  1.0009176461228921e+00  1.0000000509439875e+00  1.0000000181815194e+00  1.0000278344464002e+00  1.0000612432627138e+00  9.9999999999947353e-01  9.9982736617810419e-01  9.9999996271309455e-01  9.9999999999417710e-01  1.0001312194565950e+00  1.0001484032147530e+00  1.0000000149397414e+00  9.9999999999881550e-01  1.0000000083053942e+00  1.0659943713396169e+00  9.9999998756385100e-01  1.0020635590609854e+00  1.0000000300392311e+00  1.0077920137929111e+00  1.0000012321111074e+00  1.0000110716748736e+00  9.9999985569087635e-01  1.0000000063921675e+00  1.0000000063613486e+00  9.9999432083308970e-01  1.8700062213088333e+00  1.8327928183112268e+00  1.0000000241059082e+00  9.9999977476731661e-01  9.9999982232789575e-01  1.0001306552628606e+00  9.9998830296583030e-01  1.0002889496553107e+00  9.9999809469128698e-01  1.0000000000000080e+00  9.9999999999993894e-01  1.0000000072627089e+00  1.0000205282559507e+00  9.9998373160640608e-01  9.9999808748456409e-01  9.5275710249883339e-01  1.0004911473512279e+00  1.0001193680328826e+00  1.0000237907303435e+00  1.0000017153151535e+00  1.0000001044917923e+00  1.0000010312567609e+00  1.0000998858845169e+00  1.0059537892125465e+00  9.6825549166448832e-01  9.9999999999973810e-01  1.0008923833315451e+00  9.9652993592759809e-01  1.0000000154580191e+00  2.9940620329468792e-01  1.0000000000024296e+00  9.9999999172950516e-01  9.6619590805190891e-01  1.2759101833361579e+00  1.0000000217634815e+00  1.0000000000020983e+00  1.0000000206962372e+00  9.9999972443719864e-01  9.9999999999285560e-01  9.9999999993983246e-01  1.0000000010769203e+00  1.0000000453286402e+00  9.9999995867620983e-01  1.0011201456225614e+00  9.9998346143774208e-01  9.9999071917505433e-01  9.9999554113511346e-01  1.3868270656968493e+00  1.0000042982814290e+00  1.0001830766796196e+00  9.9999999942158513e-01  9.9999999107296489e-01  1.0000000000286440e+00  1.0000000235074220e+00  1.0000000000530302e+00  1.0000676592607913e+00  8.2157266867861412e-01  7.9366877029114169e-01  1.0001118185400870e+00  1.0000116920536031e+00  1.0000000003902967e+00  1.0000000085870793e+00  1.0000000003763219e+00  1.0000003569752181e+00  9.9136547375889716e-01  9.7775491348259413e-01  1.0000041834937650e+00  1.0000000132853275e+00  1.6645898469698475e+00  1.0197789734991316e+00  1.0953652856294351e+00  9.9999974407562087e-01  9.9999837124704549e-01  1.0000723955530704e+00  7.0397656779676043e-01  9.9999999999972344e-01  9.9999279807220898e-01  9.9992211357630667e-01  9.9999999999862965e-01  9.9999999999050793e-01  1.0000000142083922e+00  1.0000000214501426e+00  9.9999265997883624e-01  1.0000000330290235e+00  9.9999972478555244e-01  1.0000000077051334e+00  1.0000000008402621e+00  2.6778818525903525e-01  1.0000000179288888e+00  9.9917665166464908e-01  9.9999995292269783e-01  9.8545421534844524e-01  9.9995834172770148e-01  1.0000004330236996e+00  1.0000000027630818e+00  1.0000000552332970e+00  9.9625407943340494e-01  1.0005024840580747e+00  9.9999999999981426e-01  9.9994976026226012e-01  9.9999999999955347e-01  1.0000000000040834e+00  1.0000000162949008e+00  1.0000000265403153e+00  9.9999995376640671e-01  1.0230480466855973e+00  1.0000000492206076e+00  1.0099724472384557e+00  1.0000150165464765e+00  9.9998388292604456e-01  1.0967092047678608e+00  1.4425772081151094e+00  9.8739672374001319e-01  1.0673108311625372e+00  1.1571595962464201e+00  1.0003153448284887e+00  1.0000000246175860e+00  1.0000000144281354e+00  9.9983157227446162e-01  9.9999997886518543e-01  9.9999997376797212e-01  9.9999999291613584e-01  1.0000000219576290e+00  1.0000000003586120e+00  1.0000000140638614e+00  1.0000000212875308e+00  9.9976499673556263e-01  9.9992817724004923e-01  9.9997859083539276e-01  9.9999999999566491e-01  1.0005214610969473e+00  1.1283893553788762e+00  1.4715379040974661e+00  1.0000614802884342e+00  9.9999999996066913e-01  9.9999999994499555e-01  1.0000000000032883e+00  1.0000000000134288e+00  1.0000079005206108e+00  1.0000159938368260e+00  1.0880912251627419e+00  1.0024639784722358e+00  1.0001937247629205e+00  1.0001858150793963e+00  1.0000000211784654e+00  6.7675945876816868e-01  9.9999980095695906e-01  9.9999999999740885e-01  1.0000000000986455e+00  1.0000000000220253e+00  1.7769060117282662e+00  1.0000000197589152e+00  1.0324329805304751e+00  9.9999162761889615e-01  1.0008087756513870e+00  9.8527070669898476e-01  1.0000000240443212e+00  9.9938826407945813e-01  1.0000004046069535e+00  9.9999999999249645e-01  1.0293277797978488e+00  1.0005013380406018e+00  1.0000000000003222e+00  1.0000000168640413e+00  9.9999958505448816e-01  9.9995519333689198e-01  1.0000000057320682e+00  9.9997052390032282e-01  1.0000000171942438e+00  1.0000000546267409e+00  1.0018037033693110e+00  1.0919194185476473e+00  9.9999980583258241e-01  1.0000000225076098e+00  1.7660084703555721e+00  9.9992494042960034e-01  9.9995475384004773e-01  1.0000069066855972e+00  1.0104873690044165e+00  8.2483230868152535e-01  1.3393242961040903e+00  8.8645758820340981e-01  7.8839663650684211e-01  1.0000000335303745e+00  1.0000000233017963e+00  1.0000000019728223e+00  1.0000003655985190e+00  9.9969416563126845e-01  9.9998348281811911e-01  9.9985800782957235e-01  1.0000001682395636e+00  9.9999742453760454e-01  1.0000048713971128e+00  9.9999929692324530e-01  9.9999999905648829e-01  1.0000000002848684e+00  1.0000000067189931e+00  9.8655599479899392e-01  9.9999998915757737e-01  1.0000000125872752e+00  9.9999999999874889e-01  9.9999999998429090e-01  1.0000000221222045e+00  1.0000000047548474e+00  9.4128731830172740e-01  1.0010419481268114e+00  1.0000000189219469e+00  9.9999999996228073e-01  9.9991505399497727e-01  1.0000011042887695e+00  9.9999999547206331e-01  9.9999999482716084e-01  1.0000000092212522e+00  1.0000765933872482e+00  9.9999981590846887e-01  1.0000000247070633e+00  9.9999999999753209e-01  9.9999999999737932e-01  1.0000000000525864e+00  9.9999999118126381e-01  1.0000000000028710e+00  1.0000000039005821e+00  1.0000000052705253e+00  1.0000000090741155e+00  1.0000000485773497e+00  1.0000000132125015e+00  1.0000000170500443e+00  1.0000000073974391e+00  1.0000000077854805e+00  4.9423782401360633e-01  4.7200538673144088e-01  9.9999999822436569e-01  1.0000000029059697e+00  1.0000000256708341e+00  1.0000000245727299e+00  1.0000000250872809e+00  9.9999895801988992e-01  1.7681267853403482e+00  1.0230845348153794e+00  1.7544196584390219e+00  1.0000000001316538e+00  9.9999998043713645e-01  1.0005650175539607e+00  9.9999999444870324e-01  9.9739906776528087e-01  1.0000000014633563e+00  9.9434548092324060e-01  1.0000000000009943e+00  1.0000000000042559e+00  1.0000000117799561e+00  9.9999999999020683e-01  9.9999999981674259e-01  9.7195442577047597e-01  9.2730053626211972e-01  1.0000000163945904e+00  1.0000000224764749e+00  1.0000000250256722e+00  1.0035932369827223e+00  9.9992682234835928e-01  9.9999831395434469e-01  9.9999862888090851e-01  9.9987216498434628e-01  9.9986145316913355e-01  9.9999910390763025e-01  9.9982443601717097e-01  9.9999630721214561e-01  1.0000000244812983e+00  1.0000000248711236e+00  1.0000000244336165e+00  9.9999693618555263e-01  9.9999999974290754e-01  1.0000000310570785e+00  1.0000000003939775e+00  1.0000000004246150e+00  1.0001363409088118e+00  9.9999999685188079e-01  1.0241810631445813e+00  9.9982285209754751e-01  9.9999990069633216e-01  1.0000000000362799e+00  1.0000400062879204e+00  1.0000437942667040e+00  1.0000000016243702e+00  9.9999999999821299e-01  9.9999999999984068e-01  1.3127894599693464e+00  1.4039344177841919e+00  1.4095378276903421e+00  1.2660562878445696e+00  1.0000000252472510e+00  1.0000000138353076e+00  1.0000000246877765e+00  1.0000000327537826e+00  1.0000065206336803e+00  1.0000043413345510e+00  9.9952431610004255e-01  1.0000002117556184e+00  1.0000000000008813e+00  1.0000000213550764e+00  9.9930408426734019e-01  1.0000000164303842e+00  1.0000000000001119e+00  9.9999999999992439e-01  1.0000000145783261e+00  1.1258222013243449e+00  1.0000000176192072e+00  1.6434420161387953e+00  1.3878977488028508e+00  1.0000027953748638e+00  1.0000021776813108e+00  1.0001765875692172e+00  1.0000000456815392e+00  9.9742328597794105e-01  9.9999490245273648e-01  8.9575780778558722e-01  9.9999999999112621e-01  9.9998480985154425e-01  1.0000000082461831e+00  1.0000000244562044e+00  1.0000000166041678e+00  2.1650262251271126e+00  1.8647446462144097e+00  2.1625565616343572e+00  1.1263738401611487e+00  1.0000000250422163e+00  1.0000000145906007e+00  1.0000000062950583e+00  4.4311480505606909e-01  1.0000000063341425e+00  1.2390809684438948e+00  1.0000000247489129e+00  1.0000000227776