<?xml version="1.0"?>
<VTKFile type="UnstructuredGrid"  version="0.1"  >
<UnstructuredGrid>
<Piece  NumberOfPoints="3542" NumberOfCells="6362">
<Points>
<DataArray  type="Float64"  NumberOfComponents="3"  format="ascii">-20 2 0  -20 0 0  -1 0 0  -0.9996988186962042 0.02454122852291233 0  -0.9987954562051724 0.04906767432741797 0  -0.9972904566786902 0.07356456359966773 0  -0.9951847266721968 0.09801714032956083 0  -0.99247953459871 0.1224106751992163 0  -0.989176509964781 0.1467304744553618 0  -0.9852776423889412 0.1709618887603012 0  -0.9807852804032304 0.1950903220161286 0  -0.9757021300385285 0.21910124015687 0  -0.970031253194544 0.2429801799032641 0  -0.9637760657954398 0.2667127574748985 0  -0.9569403357322088 0.2902846772544624 0  -0.9495281805930367 0.3136817403988914 0  -0.9415440651830207 0.3368898533922203 0  -0.9329927988347388 0.3598950365349883 0  -0.9238795325112867 0.3826834323650899 0  -0.9142097557035307 0.4052413140049899 0  -0.9039892931234433 0.427555093430282 0  -0.8932243011955152 0.4496113296546069 0  -0.8819212643483549 0.4713967368259979 0  -0.8700869911087113 0.4928981922297841 0  -0.857728610000272 0.5141027441932218 0  -0.8448535652497071 0.5349976198870972 0  -0.8314696123025453 0.5555702330196022 0  -0.8175848131515836 0.5758081914178454 0  -0.8032075314806448 0.5956993044924335 0  -0.7883464276266062 0.6152315905806269 0  -0.773010453362737 0.6343932841636455 0  -0.7572088465064846 0.6531728429537766 0  -0.7409511253549589 0.6715589548470186 0  -0.7242470829514668 0.6895405447370671 0  -0.7071067811865475 0.7071067811865476 0  -0.6895405447370669 0.7242470829514669 0  -0.6715589548470184 0.740951125354959 0  -0.6531728429537765 0.7572088465064847 0  -0.6343932841636454 0.7730104533627371 0  -0.6152315905806267 0.7883464276266063 0  -0.5956993044924334 0.8032075314806449 0  -0.5758081914178453 0.8175848131515837 0  -0.555570233019602 0.8314696123025455 0  -0.534997619887097 0.8448535652497072 0  -0.5141027441932217 0.8577286100002721 0  -0.492898192229784 0.8700869911087115 0  -0.4713967368259977 0.881921264348355 0  -0.4496113296546067 0.8932243011955152 0  -0.4275550934302819 0.9039892931234434 0  -0.4052413140049897 0.9142097557035307 0  -0.3826834323650897 0.9238795325112867 0  -0.3598950365349882 0.9329927988347388 0  -0.3368898533922199 0.9415440651830208 0  -0.3136817403988914 0.9495281805930367 0  -0.2902846772544622 0.9569403357322089 0  -0.2667127574748983 0.9637760657954398 0  -0.2429801799032639 0.970031253194544 0  -0.2191012401568697 0.9757021300385286 0  -0.1950903220161282 0.9807852804032304 0  -0.1709618887603012 0.9852776423889412 0  -0.1467304744553616 0.989176509964781 0  -0.1224106751992162 0.99247953459871 0  -0.09801714032956065 0.9951847266721969 0  -0.07356456359966733 0.9972904566786902 0  -0.04906767432741801 0.9987954562051724 0  -0.02454122852291214 0.9996988186962042 0  6.123233995736766e-17 1 0  0.02454122852291226 0.9996988186962042 0  0.04906767432741813 0.9987954562051724 0  0.07356456359966745 0.9972904566786902 0  0.09801714032956077 0.9951847266721968 0  0.1224106751992163 0.99247953459871 0  0.1467304744553617 0.989176509964781 0  0.1709618887603014 0.9852776423889412 0  0.1950903220161283 0.9807852804032304 0  0.2191012401568698 0.9757021300385286 0  0.242980179903264 0.970031253194544 0  0.2667127574748984 0.9637760657954398 0  0.2902846772544623 0.9569403357322089 0  0.3136817403988916 0.9495281805930367 0  0.3368898533922201 0.9415440651830208 0  0.3598950365349883 0.9329927988347388 0  0.3826834323650898 0.9238795325112867 0  0.4052413140049899 0.9142097557035307 0  0.4275550934302822 0.9039892931234433 0  0.4496113296546066 0.8932243011955153 0  0.4713967368259978 0.8819212643483549 0  0.4928981922297841 0.8700869911087113 0  0.5141027441932217 0.8577286100002721 0  0.5349976198870973 0.844853565249707 0  0.5555702330196023 0.8314696123025452 0  0.5758081914178453 0.8175848131515837 0  0.5956993044924335 0.8032075314806448 0  0.6152315905806268 0.7883464276266062 0  0.6343932841636455 0.773010453362737 0  0.6531728429537768 0.7572088465064845 0  0.6715589548470183 0.7409511253549591 0  0.6895405447370669 0.7242470829514669 0  0.7071067811865476 0.7071067811865475 0  0.724247082951467 0.6895405447370668 0  0.7409511253549591 0.6715589548470183 0  0.7572088465064846 0.6531728429537768 0  0.773010453362737 0.6343932841636455 0  0.7883464276266063 0.6152315905806268 0  0.8032075314806449 0.5956993044924334 0  0.8175848131515837 0.5758081914178453 0  0.8314696123025452 0.5555702330196022 0  0.8448535652497071 0.5349976198870972 0  0.8577286100002721 0.5141027441932217 0  0.8700869911087115 0.492898192229784 0  0.881921264348355 0.4713967368259976 0  0.8932243011955153 0.4496113296546065 0  0.9039892931234433 0.4275550934302821 0  0.9142097557035307 0.4052413140049899 0  0.9238795325112867 0.3826834323650898 0  0.932992798834739 0.3598950365349881 0  0.9415440651830208 0.3368898533922201 0  0.9495281805930367 0.3136817403988915 0  0.9569403357322088 0.2902846772544623 0  0.9637760657954398 0.2667127574748984 0  0.970031253194544 0.2429801799032639 0  0.9757021300385286 0.2191012401568698 0  0.9807852804032304 0.1950903220161282 0  0.9852776423889412 0.1709618887603012 0  0.989176509964781 0.1467304744553617 0  0.99247953459871 0.1224106751992162 0  0.9951847266721969 0.0980171403295606 0  0.9972904566786902 0.07356456359966743 0  0.9987954562051724 0.04906767432741801 0  0.9996988186962042 0.02454122852291229 0  1 0 0  20 0 0  20 2 0  0 2 0  -10 2 0  10 2 0  -10.5 0 0  -5 2 0  10.5 0 0  5 2 0  -15 2 0  -5.75 0 0  -2.5 2 0  15 2 0  5.75 0 0  2.5 2 0  -15.25 0 0  -3.375 0 0  15.25 0 0  3.375 0 0  -17.625 0 0  -17.5 2 0  17.5 2 0  17.625 0 0  8.125 0 0  7.5 2 0  12.875 0 0  12.5 2 0  -12.5 2 0  -12.875 0 0  -8.125 0 0  -7.5 2 0  -18.75 2 0  -18.8125 0 0  18.75 2 0  18.8125 0 0  16.4375 0 0  16.25 2 0  -16.25 2 0  -16.4375 0 0  13.75 2 0  -14.0625 0 0  -13.75 2 0  -11.6875 0 0  11.6875 0 0  -9.3125 0 0  8.75 2 0  -8.75 2 0  6.9375 0 0  6.25 2 0  -6.9375 0 0  -6.25 2 0  9.3125 0 0  11.25 2 0  -11.25 2 0  3.75 2 0  4.5625 0 0  -4.5625 0 0  -3.75 2 0  -1.25 2 0  1.25 2 0  14.0625 0 0  2.1875 0 0  -2.1875 0 0  -20 1 0  20 1 0  18.21875 0.982421875 0  -18.21875 0.982421875 0  16.875 1.0498046875 0  -17.03125 0.966796875 0  -15.84375 0.953125 0  15.625 1.0625 0  14.375 1.0732421875 0  -14.375 1.0732421875 0  1.830289387965117 1.052284088108649 0  -1.830289387965117 1.052284088108649 0  -3.125 1.08203125 0  -13.28477656888586 1.012129001112436 0  13.125 1.08203125 0  3.125 1.08203125 0  -4.375 1.0888671875 0  11.875 1.0888671875 0  -11.875 1.0888671875 0  4.203765290519877 1.0193030867737 0  -5.625 1.09375 0  5.625 1.09375 0  10.625 1.09375 0  -10.80634835916782 1.025744365312066 0  9.375 1.0966796875 0  -6.875 1.0966796875 0  -9.375 1.0966796875 0  6.684990875912408 1.03136405109489 0  -8.322099415573495 1.036062682633283 0  8.125 1.09765625 0  19.11075969939671 0.8508947319664032 0  -19.11075969939671 0.8508947319664032 0  -7.53125 0 0  8.71875 0 0  7.423362102206937 0.6655467048188293 0  9.90625 0 0  -6.34375 0 0  -10.07209987056368 0.6864155791813131 0  -5.15625 0 0  4.932893941568688 0.70313517104756 0  11.09375 0 0  -3.96875 0 0  12.28125 0 0  -12.56167362378033 0.7158719711052053 0  -15.12789358749343 1.239622257084254 0  19.375 2 0  -19.375 2 0  -7.586458743762512 0.7777256637040587 0  -8.876841588719831 0.5749490497356908 0  -2.78125 0 0  13.46875 0 0  2.486351124110562 0.6882204272146759 0  -2.484375 0.6875496078884429 0  13.765625 0.6685592193186988 0  6.127605163798639 0.5971727330055587 0  0.625 2 0  -0.625 2 0  -1.146535794159178 1.28513409566998 0  1.146535794159178 1.285134095669981 0  14.65625 0 0  14.953125 0.6512707752786624 0  -14.87682753143027 0.5890664696931456 0  12.578125 0.6384885491877257 0  -3.671875 0.6384885491877257 0  -15.625 2 0  -11.36675239212577 0.6158089665857418 0  15.00271470412651 1.324726469417674 0  17.53235848397354 0.7266244978817956 0  11.390625 0.6116981677410314 0  -4.859375 0.6116981677410314 0  15.84375 0 0  16.140625 0.6148897058823529 0  7.497593266890831 1.330710907262048 0  13.76254792112057 1.334335181755445 0  -10.20969602084016 1.352738855957021 0  17.03125 0 0  3.639986821556412 0.6311208834101457 0  -2.422032960990368 1.344610008595471 0  -1.875 2 0  2.42168763602468 1.344854035092462 0  1.875 2 0  -6.046875 0.5879464285714285 0  10.203125 0.5879464285714285 0  4.785027294216357 1.360955117010924 0  -16.43327865604348 1.32661481258014 0  -16.44139997701004 0.663326532427168 0  -12.71719161438206 1.366886164755866 0  9.015625 0.567039754702805 0  -13.85227446991684 0.6433291643838606 0  17.68435132148515 1.367585767263021 0  -8.125 2 0  -7.779164034427432 1.405551895778211 0  6.875 2 0  -16.875 2 0  16.25211206745888 1.264109755085799 0  -3.748868614850469 1.292331074664245 0  12.50113138514953 1.292331074664245 0  -4.999425840599162 1.238293400364507 0  11.25057415940084 1.238293400364507 0  10.00021284174179 1.186027320246887 0  -6.249787158258211 1.186027320246887 0  8.750028772491092 1.133996757348608 0  8.125 2 0  -9.375 2 0  -6.875 2 0  9.375 2 0  10.625 2 0  5.625 2 0  -5.625 2 0  -11.875 2 0  11.875 2 0  -4.375 2 0  3.125 2 0  13.125 2 0  -14.375 2 0  14.375 2 0  15.625 2 0  -18.125 2 0  16.875 2 0  -3.125 2 0  -10.625 2 0  4.375 2 0  -13.125 2 0  18.125 2 0  -17.62042339570457 1.322431301452557 0  -17.64048254773117 0.661277151197267 0  -1.59375 0 0  1.59375 0 0  -19.40625 0 0  19.40625 0 0  20 0.5 0  19.0625 1.466926268772181 0  -18.7305243036722 1.362703047674974 0  -5.451064633443578 0.5209722999527524 0  10.79893536655642 0.5209722999527524 0  9.610417111950763 0.5183010867631196 0  -13.46875 0 0  3.96875 0 0  -11.09375 0 0  6.34375 0 0  2.78125 0 0  -8.71875 0 0  -12.28125 0 0  5.15625 0 0  -9.90625 0 0  7.53125 0 0  -15.84375 0 0  -17.03125 0 0  -18.21875 0 0  18.21875 0 0  -14.65625 0 0  20 1.5 0  -19.48071156660626 1.370757229128913 0  -20 0.5 0  -4.24552725411087 0.5169543671041
[...]
<CellData  Scalars="f_2203781"> 
<DataArray  type="Float64"  Name="f_2203781"  format="ascii">4.8533381904359478e-04   4.1925557169403434e-04   6.7806425370945181e-04   4.5258398178435396e-04   1.0242245763755280e-03   1.2411255125793278e-03   1.9507947489009344e-03   1.2989270764311776e-03   1.4241153691695780e-03   3.3595438794868041e-03   2.8207995600176370e-03   2.7578938167665983e-03   1.8481828438419754e-02   2.3836605088398268e-02   2.1571174860590885e-02   3.8506090934570927e-02   9.9360318062822993e-03   1.3268722445197266e-02   7.1474280017659675e-03   7.9653402246408420e-03   6.5787431595362234e-03   5.7678039013847552e-03   1.0510627919076481e-02   9.6537079189736256e-03   5.9014428172774885e-03   6.3385540667721847e-03   4.6414653625671109e-03   3.0850357118517510e-03   8.0044465005550472e-03   1.0159054626475384e-02   6.6711392775137138e-03   3.1133760807080905e-03   9.1793687719625688e-04   8.5642118707508850e-04   7.5146754763296038e-04   1.2801889665767887e-03   6.9296064315521621e-04   6.9673451209610344e-04   8.4535723185569179e-04   8.9726307240237373e-04   1.0312331210997778e-04   2.2756909984933583e-04   9.7359915739582227e-05   1.4759567422909531e-04   1.9703230406908974e-04   2.0772683676718401e-04   1.6884900711680988e-04   9.7205024221930372e-05   7.0327554283623373e-05   7.7400221321097148e-05   1.7608943858406673e-04   2.5145256585154741e-04   8.3279817019904956e-04   4.8522686344501590e-04   5.1621127809455924e-04   4.1439252667733247e-04   1.0956849967259051e-03   2.6045187386997998e-03   1.1138897780789787e-03   9.4148994587423278e-04   1.9847016259485367e-03   2.7816817999253333e-03   1.0403198587100721e-03   1.7080109892646490e-03   6.4886486786434536e-04   1.3922390066077402e-03   6.1403798138005578e-04   1.1118017041617202e-03   4.6245690189672812e-04   2.3521503504648217e-04   3.2978540041708737e-04   2.4406354229876179e-04   2.8464583696658132e-03   3.3488655893428210e-03   5.2005668234919884e-03   3.3446459661797077e-03   4.7402987753837372e-04   6.7628251943086404e-04   7.8415650707001634e-04   4.1922816920248997e-04   1.7958279474552136e-04   9.0490297935956433e-05   3.9242448057180338e-04   1.6481856499895721e-04   5.3665967098402744e-04   6.5491545593941551e-04   5.8805505676306677e-04   5.6193632848627385e-04   4.6989425172627752e-04   6.6662769312444048e-04   2.9448487222411668e-04   5.1410828815590267e-04   8.2485074812628165e-02   3.4581398579236741e-02   8.8666170616572532e-02   5.1186646928971416e-02   1.2642023160390603e-01   1.2913568791572075e-01   9.8951013047507377e-02   9.6549382998914468e-02   6.4688145726836441e-02   4.1236327437994248e-02   6.5733559428737764e-02   6.0691021325970922e-02   2.3223935682550812e-02   1.9938808301463808e-02   3.2365351108911630e-02   2.9367052068094042e-02   5.3331748759418485e-02   5.3265927391618777e-02   4.5282835662615248e-02   6.2792011473561699e-02   6.5409627216180224e-02   8.6575044673139534e-02   6.7130207112551146e-02   7.0266972636731373e-02   7.6376233003027857e-02   6.1763788166088095e-02   9.1252736582682126e-02   1.0298194492289169e-01   4.4123503681162912e-02   5.3861937593281881e-02   2.2399553759226361e-02   3.5247647472954280e-02   3.2449984404807758e-02   3.5681252923131797e-02   5.2563648182572885e-02   2.7537177230437904e-02   2.1063251304674853e-02   1.7418274704365497e-02   3.1216931237188151e-02   2.7483611810113790e-02   5.1815926714998399e-02   4.2774514324096749e-02   3.6977546766791464e-02   3.5770612047833432e-02   2.3818255948675548e-02   2.7174771380618037e-02   1.7054740546493020e-02   2.6040551162809050e-02   4.8726208975662044e-02   3.5032134016204718e-02   2.8873575432870616e-02   2.7242017319474121e-02   3.7728924904495954e-02   2.9674264726511905e-02   2.8416010669350882e-02   3.3944791771842481e-02   5.9752085573486151e-02   5.4159471095276454e-02   1.6733511641996396e-01   3.0838448197754958e-01   1.9978691338799721e-02   3.8583353940888430e-02   2.6424649507525023e-02   4.3163706500257880e-02   4.5746776584046711e-03   7.0868621213707765e-03   3.5360873464576016e-03   5.2153169668915028e-03   6.0230784125121341e-03   5.9756673207438460e-03   5.5872051464436988e-03   7.3782247169506621e-03   4.9834223695246760e-03   2.7576274135724678e-03   7.9033249005599979e-03   6.3584404883530472e-03   5.6560212159690220e-03   9.3295060151973950e-03   8.1017469303188844e-03   6.8258141396367314e-03   1.0216244031183870e-01   7.7114353316956555e-02   6.5728651065478996e-02   5.8087089627834695e-02   3.3999046143060110e-02   3.9225934070666629e-02   4.1034559983427699e-02   4.1538391283109662e-02   5.1067047943501073e-02   5.7237940446054875e-02   4.3138898852197183e-02   5.4863867197875400e-02   2.6910078699783648e-02   2.3791960550545600e-02   3.4499773599971820e-02   1.6739946754510290e-02   1.4740275620820811e-03   2.3270976160893507e-03   1.9011318642575832e-03   2.5413842382189613e-03   6.1501175155833972e-03   4.6684450963475023e-03   6.7278165045421131e-03   4.7872539633937936e-03   1.6500401422648262e-03   2.5687432918295974e-03   8.1085960509793848e-04   2.3797725978399824e-03   5.2341409338116894e-03   3.0696053410814426e-03   7.9961119084662833e-03   8.6729227115450603e-03   3.9775618264429316e-03   6.1897327724836828e-03   3.9368689243066282e-03   6.2809602279237141e-03   6.6010874998069058e-04   7.6745202947303757e-04   5.5150165228934150e-04   6.2371540073500491e-04   1.4591938770006697e-03   2.2543030769976362e-03   8.2312159742875307e-04   1.3226930790144361e-03   9.4447137848222300e-04   7.7725798523327902e-04   1.2708505471046797e-03   8.5432087177564049e-04   2.5656309005842692e-03   2.4515546758688308e-03   3.1508542923130252e-03   3.4177041136121697e-03   2.3216281100888188e-05   4.7968108797528379e-05   2.9507295418989398e-05   4.9939403871433974e-05   8.4459973911610933e-02   8.2401270634666651e-02   6.2373031009556462e-02   6.9437642473974825e-02   2.5259432872442495e-02   1.9698858259055999e-02   3.9385582811214723e-02   3.7702755977302278e-02   3.4618166491932466e-02   3.7829964541235078e-02   6.5194139765372056e-02   3.9394830992663714e-02   1.0277983705103946e-01   7.8971563319697860e-02   1.1705585768490788e-01   1.3598901741170452e-01   8.3496640644024095e-02   9.2674586746362350e-02   1.3857282967861972e-01   1.1973830789207082e-01   4.8469435842421575e-02   6.2323678681618470e-02   5.4283733873797584e-02   5.3978960498288438e-02   1.4037177435386125e-01   1.6827209805973747e-01   9.4205736191399533e-02   6.0849500326406264e-02   1.1674981593829315e-02   1.1064754373899898e-02   1.3183828004861233e-02   1.5059898789522767e-02   4.8364334426686875e-02   3.9749516500193233e-02   6.6439389432781062e-02   5.5103558487598368e-02   1.4021910428542514e-01   1.1893110665501960e-01   9.4005228110219580e-02   1.0721863294185403e-01   1.2892909475392553e-01   1.2055157974443464e-01   7.6271979451955713e-02   9.8283132901498316e-02   3.3614456497434039e-02   4.2995798033714443e-02   2.8016965068491526e-02   6.6952399270222451e-02   1.1668678370527734e-01   3.6383211883450783e-02   9.3072819942462345e-02   7.1458010876882597e-02   1.5425126292608895e-02   1.3239920089700100e-02   1.4407892906685354e-02   2.0469759271823804e-02   4.7594868997254625e-02   1.3455631590887615e-01   3.9209945893895884e-02   8.4311934742075101e-02   1.5675464259760942e-02   1.3978719402270596e-02   1.5088372275528870e-02   1.5006240649678473e-02   1.0540692281440592e-02   1.1411175097216324e-02   7.0925778716265514e-03   7.3763105450135001e-03   3.6598278105567658e-03   3.7858220940859837e-03   2.3587413205237821e-03   2.5176809603269777e-03   1.8203705557475323e-02   1.1343070049686561e-02   2.1964926420188661e-02   2.5503659379998440e-02   5.3221874380982873e-02   6.8204282692026538e-02   2.8229613125931186e-02   4.0140705076906459e-02   2.0514633750356576e-01   1.4438366310197828e-01   1.0864978882467198e-01   5.5752182165733667e-02   1.7421314143922873e-03   3.4393869687999561e-03   3.3288266352827257e-03   2.8160040252569346e-03   2.4949774763019508e-03   2.6500492047702795e-03   1.4685688025758081e-03   1.0289641181265858e-03   9.1563480966445909e-04   6.5774302025632398e-04   9.8157175951640646e-04   5.5880929989647057e-04   2.6824987744461907e-02   3.5005433077843873e-02   2.5469457212672797e-02   1.6226574422896524e-02   1.9702371327759888e-01   2.3787575515940221e-01   7.8322283709326965e-02   2.2322110587560515e-01   6.7058081382989423e-02   6.6214557304356797e-02   7.4628284606654494e-02   5.6358737890207906e-02   7.8302490048003534e-02   7.6154004629812755e-02   7.3800535087823804e-02   8.6071351870901938e-02   1.4174538338477224e-02   1.2931292991648932e-02   1.7744768136389814e-02   2.9121920133439925e-02   7.4838517477870889e-03   7.0580559357058042e-03   1.6576923099072043e-02   9.6248470228666849e-03   8.2692067297902914e-04   1.0055499595347441e-03   7.7323355493182577e-04   1.1855093910163584e-03   4.5083469092476787e-04   5.7563472956063597e-04   4.7594300502495907e-04   4.1129635825971385e-04   4.8485627009624922e-04   3.7790250794455372e-04   6.4379126610185128e-04   7.3273466049429377e-04   8.5909910270612236e-04   1.3321879614859138e-03   9.2208748832528216e-04   7.9087406444249019e-04   7.9479023203691216e-03   9.1017495948417307e-03   8.7772858368729990e-03   7.9873061871567671e-03   1.3376935225351088e-02   1.8374506186301778e-02   2.5506328258131358e-02   2.1443424023698889e-02   1.0442482102743834e-03   1.2841453971319762e-03   1.0468412895293295e-03   9.7025657104446233e-04   1.2265300965508780e-02   1.6198507681719689e-02   9.4824510159308307e-03   7.2923564321370326e-03   9.2853587753982027e-03   1.2152330258312513e-02   6.7707882714233428e-03   4.9785921764442893e-03   2.0303863189272543e-03   2.9381281024584345e-03   3.4821312679973754e-03   7.1021670436914102e-03   7.2969393088135215e-04   1.3557375708868442e-03   5.4291965421432301e-04   8.1933721169296172e-04   1.0949832990583461e-03   5.3335416738167286e-04   5.1248734874792209e-04   7.0872774940353037e-04   4.3858957258586162e-04   3.2088146570551833e-04   4.9461841472795928e-04   3.2659217275954127e-04   1.4153580697343250e-04   2.0379284985285834e-04   1.8832121729309452e-04   3.4614307460476636e-04   1.2365608175526053e-04   1.2604221912050238e-04   2.1919917394581053e-04   1.6035656701615395e-04   9.3146828773818513e-05   4.2722246760335474e-05   1.5258211810760262e-04   1.2005961659408449e-04   6.5198751942889706e-04   1.0288083132013088e-03   4.2712317391735232e-04   8.5544127528171775e-04   2.9057978696355005e-04   2.0092581040921203e-04   2.8042559782490384e-04   9.1648322961026618e-04   2.1423656141583312e-04   1.5075973836598767e-04   3.8387322106625592e-04   3.6579619697548301e-04   6.1533800147454054e-03   8.3141589782605805e-03   5.7555394933843105e-03   4.3546360619623409e-03   6.3001121334077675e-03   8.2951212575079081e-03   9.7593514759850772e-03   2.2892152561773738e-02   2.3874112315010925e-03   2.6722350997729453e-03   3.8074353245256798e-03   2.6755043693599272e-03   1.6126843749177610e-03   1.9334501136456283e-03   2.8251669349300284e-03   3.5308537514827858e-03   3.6225149111124175e-04   5.6483744102131951e-04   3.4993275190038441e-04   2.7775444841268633e-04   1.8107224843018691e-03   2.9462143477808362e-03   7.5187759916617118e-04   1.6063328713446709e-03   3.1997676899847549e-04   3.3154785932412728e-04   3.9564747913755152e-04   3.1759847042043486e-04   9.6151644253797386e-05   1.2713742051404442e-04   7.2994351374823551e-05   2.3375927229651452e-04   9.5896380592239031e-04   1.7673899140728227e-03   2.2631064212186788e-04   6.6181892137644031e-04   8.5253655872158211e-05   1.4080033687722401e-04   8.4760041300842298e-05   6.1617631866047010e-05   2.1986363821728940e-02   3.5865373544636488e-02   4.0177777334021725e-02   3.3064985662089277e-02   2.4634040795752858e-03   3.9600463711466942e-03   2.5231087626225372e-03   2.8892611541533361e-03   9.6061252923763204e-10   2.3517854504802923e-03   3.0220527226571489e-03   2.5522763291524557e-03   2.1685352884744137e-03   1.6024722841987533e-02   2.4346675158061468e-02   1.4469284181621456e-02   1.5118192733445741e-02   3.3290465266799649e-04   3.5657717984584174e-04   4.0848286467680590e-04   7.9286118616332213e-04   1.4175149340395406e-02   9.4438132416065079e-03   6.5360811220267854e-03   2.1049687961715224e-03   1.3256492223809993e-07   1.8590328747061533e-11   1.2837953417038273e-04   2.7499592859432420e-05   2.4451284992637772e-05   4.7815915741095517e-05   1.1388440166250064e-09   1.6644494023640605e-11   1.3095848433214137e-11   9.1579832477634567e-12   1.3687288932831608e-11   1.0703376693790218e-10   5.8949406247295667e-11   7.4414141298872916e-11   4.4994593901501875e-09   7.2716974119469881e-08   9.3992585443897837e-08   1.1005097970169042e-07   3.5439384338978731e-07   2.3928468567302200e-07   5.3974780181269102e-07   3.2916829309343136e-07   1.4987387630327068e-07   1.6477543118465233e-07   2.1824819164491962e-07   1.7279003746145032e-07   6.3028181166015382e-09   3.3806537568033044e-09   1.2715960768544125e-08   2.4428555132262625e-09   2.7810880975882856e-09   2.4132676788098690e-09   1.5324470734055263e-11   9.2412200444962266e-06   5.0195916464107726e-06   1.4972862886527013e-05   8.3760695383813880e-06   4.6088944164961797e-07   3.9525820638844244e-07   2.7746943896926502e-07   2.6778239644023006e-07   1.3438114468610770e-04   1.5907337783511026e-04   1.6913416142494046e-04   1.0651413724591971e-04   1.6100414862401026e-05   8.0820987156271624e-06   1.6470965625434288e-05   1.0947454522328512e-05   2.9883770629291020e-03   3.5480369015758280e-03   3.3794543797647891e-03   4.0391428813196916e-03   1.2053215305843398e-02   2.0161728451204983e-02   8.1231179516199070e-03   1.7416611455919179e-02   6.7954320367404400e-04   9.3209041697965881e-04   3.7532001539513537e-04   7.6767288946655353e-04   1.6166949556534447e-09   8.9568824015258489e-10   2.9160168113673648e-04   3.4054869979151427e-04   4.0005824399881671e-04   2.5516108785650387e-04   6.3322559138633375e-06   8.2943087865317112e-06   3.8521817330303804e-06   2.9431279099686378e-06   1.6535215098308217e-09   2.6804479394923929e-09   6.2514995189139773e-09   1.0402765429510018e-08   1.8689188260700753e-08   2.0262521440611594e-08   1.7413521365905507e-08   1.7150761176885158e-08   3.4068350278200000e-09   8.5017019890743866e-09   3.8990793410284160e-09   1.3787057068728719e-11   1.6744073998312000e-09   3.4918968147893025e-09   1.1831102761648609e-11   2.6519223112640867e-11   1.3710199102030065e-11   2.0593904516592088e-11   9.3029453463443126e-12   2.2264141329564785e-11   9.6117403681016316e-10   9.6786443687392806e-10   2.3952057225244309e-11   8.5474814020185317e-04   5.1733379660799314e-04   1.1034839912494286e-03   8.2654403828370685e-04   7.5496335097407097e-04   9.9393894409054964e-04   6.8828934597515361e-04   9.5108833850628268e-04   5.6962034036164696e-05   1.3957145459502713e-04   1.0562390086160772e-04   1.0319931505404538e-04   4.3564507341670730e-04   6.1544178425016231e-04   7.4853878925094442e-04   7.4172082439150533e-04   8.6874139288341327e-12   8.0816436900462550e-10   1.1404901621649979e-07   2.2554576547737140e-09   4.1057405955310423e-09   3.0321458254849363e-09   1.8098747052741596e-09   9.9459865856056644e-10   1.1807493422720977e-11   4.0667864205409043e-06   4.9598271589567567e-06   3.8970182827582463e-06   3.3943633844086449e-06   2.7536381590591282e-07   2.5577050983599930e-07   3.3299274670390394e-07   3.3002672148960237e-07   1.2177343245549103e-06   9.6819334510621581e-07   1.5511775619006667e-06   1.2824494946088032e-06   2.1934309271827677e-09   1.8409789078766909e-09   2.0991628008997377e-09   1.8914726898687120e-09   2.1805240511977876e-09   1.4880501073642642e-08   4.2740196918272211e-10   4.1342543025587072e-07   2.8939067111002272e-07   3.1185841002402792e-08   1.0942479804781989e-07   7.0088062472450514e-09   6.2426628736309289e-09   5.5440252911025241e-09   6.4601736436137053e-09   6.2097768324672773e-09   7.1051549625893046e-09   1.6539399145595899e-08   1.4361478489480573e-08   1.5590538821763495e-08   1.6079067129130281e-08   2.8316018990014199e-08   2.1657480191262555e-08   4.7621242104407686e-09   3.7323137391521937e-09   9.6277185713543548e-09   8.3743873954047988e-09   6.1966035016572459e-08   5.3155942857465724e-08   3.4763523349204443e-08   3.7189601987897084e-09   3.9177681146415349e-09   3.7801323328548882e-09   3.9984868036707605e-09   3.1158701721952596e-09   3.6885039393913225e-09   1.1220010712650834e-07   1.2707717542744509e-09   1.6312705564082723e-06   1.7947103511446926e-06   9.8621691860091687e-07   1.0152830375166308e-06   5.8849811762381193e-07   1.0808237198926963e-06   9.8332332982278769e-07   1.1141216268598621e-06   4.6757598466671499e-09   4.0003033305915314e-09   5.7549838638888165e-09   3.7331454253044817e-09   1.5517316800449894e-05   3.2343940973109902e-05   1.2258588712978732e-05   1.4300133918627017e-05   2.5652599790083062e-09   2.5421423583236397e-09   1.1547286011489941e-11   3.3860673844298301e-09   1.2168973546749746e-05   1.0067941872615110e-05   1.6440095020730529e-04   3.8551994526150897e-05   2.8814357095105146e-05   6.0619589592951525e-05   2.6453228081163089e-08   2.6148629730363945e-08   3.5933308269610449e-09   1.8642113734333566e-04   1.5096086925043685e-04   1.4331586528416019e-04   1.5367022396793384e-04   1.0162296053967033e-09   2.5177604974541953e-04   1.9634827870238877e-04   1.7322056581773953e-04   2.6136881688641831e-04   2.1417885313283001e-04   2.7011537243667040e-04   2.6759136232901181e-04   1.9070881378090902e-04   4.8603238396853577e-05   6.2555173332171776e-05   8.0800267355378232e-05   4.3055925215153433e-05   3.2996351260885181e-04   5.8914475666994447e-04   3.2321129299158369e-04   2.5619982537868915e-04   3.0993943795025720e-10   1.1698433164572502e-09   3.3122810927462344e-07   4.2851899957110455e-07   2.1377977288987100e-07   9.5933969176155679e-08   9.0193364956151996e-08   1.3457598535785964e-07   8.6885038582569706e-08   6.2471367062495273e-02   9.5797956796766670e-02   7.8384643611542418e-02   6.9903786931390696e-02   2.9797099946764116e-02   1.8283908316589645e-02   3.5914675406250957e-02   2.3260585315099714e-02   9.0028227448699233e-03   1.0523766610476212e-02   1.5790581741663503e-02   1.1717441860840601e-02   1.7143880658513477e-02   1.0654695309751824e-02   2.2727891311555060e-02   1.0936817430862875e-02   2.2218071144616287e-03   2.1295464259676543e-03   3.3354792597552673e-03   3.9074821429463912e-03   7.3289116680963556e-03   8.5331223961697227e-03   8.1558165430602441e-03   8.2356467871131205e-03   2.5304902165120168e-02   4.6085070671699681e-02   2.9276685791285988e-02   3.3915423378614092e-02   1.0860297214880955e-09   1.7774573702651307e-09   2.3557478530437066e-09   4.0631297750084025e-10   1.7779375913264010e-11   3.6199778774644974e-10   4.1112188619889345e-10   1.6436645729979175e-04   1.7715933359442788e-04   1.3910028829087587e-04   1.6540498668066414e-04   6.4967355619831844e-05   8.3075905435393938e-05   4.5330496172323180e-05   4.1093801875710012e-05   1.0836053164791918e-11   1.3657528041679373e-11   4.3269418561915755e-11   3.6371808970365090e-10   6.7101118076639806e-10   3.1738810662148730e-09   5.1990547892285207e-10   3.8692211958791384e-09   3.9560595515543641e-09   1.3014798630574519e-05   1.0544949598733516e-05   1.6199062856365199e-05   1.0774437478400323e-05   1.6201523902432190e-06   3.0480830977610554e-06   1.8149246673365740e-06   1.8439461103508226e-06   6.9271356033048400e-10   4.4688418983965776e-09   4.6741045373280707e-09   2.6703488543174804e-09   3.1292611572432632e-09   5.1362454433369784e-09   2.6172054761642217e-09   2.1458367213885504e-09   8.3836504630051051e-09   1.1468001179268651e-08   1.1702398360706888e-08   1.2364861422878796e-08   9.4625970145019889e-10   8.5929873720948203e-11   2.6433750081500316e-09   3.5790213627142722e-09   4.6583369503129813e-09   2.9019256231218835e-09   1.5628113872420482e-05   8.3949