<?xml version="1.0"?>
<VTKFile type="UnstructuredGrid"  version="0.1"  >
<UnstructuredGrid>
<Piece  NumberOfPoints="3160" NumberOfCells="5316">
<Points>
<DataArray  type="Float64"  NumberOfComponents="3"  format="ascii">1.25 0 0  1.249623523370255 0.03067653565364036 0  1.248494320256466 0.06133459290927252 0  1.246613070848363 0.09195570449958429 0  1.243980908340246 0.1225214254119508 0  1.240599418248387 0.1530133439990203 0  1.236470637455976 0.1834130930692022 0  1.231597052986177 0.2137023609503765 0  1.225981600504038 0.2438629025201603 0  1.219627662548161 0.2738765501960873 0  1.21253906649318 0.3037252248790798 0  1.2047200822443 0.333390946843623 0  1.196175419665261 0.3628558465680779 0  1.186910225741296 0.3921021754986144 0  1.176930081478776 0.4211123167402751 0  1.166240998543424 0.4498687956687352 0  1.154849415639108 0.4783542904563622 0  1.142762194629413 0.5065516425062373 0  1.129986616404304 0.5344438667878526 0  1.116530376494394 0.5620141620682582 0  1.102401580435444 0.5892459210324971 0  1.087608738885889 0.61612274028723 0  1.07216076250034 0.642628430241527 0  1.056066956562134 0.6687470248588714 0  1.039337015378182 0.6944627912745027 0  1.02198101643948 0.7197602392723067 0  1.004009414350806 0.7446241306155417 0  0.9854330345332579 0.7690394882257835 0  0.9662630667034212 0.7929916052045569 0  0.9465110581331058 0.8164660536922209 0  0.9261889066936989 0.8394486935587729 0  0.9053088536893338 0.8619256809213336 0  0.8838834764831844 0.8838834764831843 0  0.8619256809213337 0.9053088536893337 0  0.8394486935587729 0.9261889066936989 0  0.8164660536922209 0.9465110581331055 0  0.7929916052045569 0.9662630667034212 0  0.7690394882257835 0.9854330345332578 0  0.7446241306155419 1.004009414350806 0  0.7197602392723067 1.02198101643948 0  0.6944627912745028 1.039337015378182 0  0.6687470248588716 1.056066956562134 0  0.642628430241527 1.07216076250034 0  0.6161227402872301 1.087608738885889 0  0.5892459210324973 1.102401580435444 0  0.5620141620682583 1.116530376494394 0  0.5344438667878527 1.129986616404304 0  0.5065516425062373 1.142762194629413 0  0.4783542904563623 1.154849415639108 0  0.4498687956687353 1.166240998543424 0  0.4211123167402751 1.176930081478776 0  0.3921021754986145 1.186910225741296 0  0.3628558465680779 1.196175419665261 0  0.333390946843623 1.2047200822443 0  0.30372522487908 1.21253906649318 0  0.2738765501960872 1.219627662548161 0  0.2438629025201604 1.225981600504038 0  0.2137023609503767 1.231597052986177 0  0.1834130930692022 1.236470637455976 0  0.1530133439990203 1.240599418248387 0  0.122521425411951 1.243980908340246 0  0.09195570449958432 1.246613070848363 0  0.06133459290927266 1.248494320256466 0  0.03067653565364033 1.249623523370255 0  7.654042494670958e-17 1.25 0  -0.03067653565364018 1.249623523370255 0  -0.06133459290927251 1.248494320256466 0  -0.09195570449958416 1.246613070848363 0  -0.1225214254119508 1.243980908340246 0  -0.1530133439990202 1.240599418248387 0  -0.1834130930692021 1.236470637455976 0  -0.2137023609503766 1.231597052986177 0  -0.2438629025201602 1.225981600504038 0  -0.2738765501960871 1.219627662548161 0  -0.3037252248790798 1.21253906649318 0  -0.3333909468436229 1.2047200822443 0  -0.3628558465680777 1.196175419665261 0  -0.3921021754986143 1.186910225741296 0  -0.4211123167402749 1.176930081478776 0  -0.4498687956687352 1.166240998543424 0  -0.4783542904563621 1.154849415639108 0  -0.5065516425062372 1.142762194629413 0  -0.5344438667878524 1.129986616404304 0  -0.5620141620682584 1.116530376494394 0  -0.5892459210324972 1.102401580435444 0  -0.61612274028723 1.087608738885889 0  -0.642628430241527 1.07216076250034 0  -0.6687470248588713 1.056066956562134 0  -0.6944627912745025 1.039337015378182 0  -0.7197602392723067 1.02198101643948 0  -0.7446241306155417 1.004009414350806 0  -0.7690394882257834 0.9854330345332579 0  -0.7929916052045567 0.9662630667034213 0  -0.8164660536922207 0.9465110581331059 0  -0.8394486935587731 0.9261889066936988 0  -0.8619256809213337 0.9053088536893337 0  -0.8838834764831843 0.8838834764831844 0  -0.9053088536893334 0.8619256809213338 0  -0.9261889066936986 0.8394486935587732 0  -0.9465110581331058 0.8164660536922208 0  -0.9662630667034212 0.7929916052045569 0  -0.9854330345332578 0.7690394882257836 0  -1.004009414350806 0.7446241306155419 0  -1.02198101643948 0.7197602392723068 0  -1.039337015378182 0.6944627912745027 0  -1.056066956562134 0.6687470248588714 0  -1.07216076250034 0.6426284302415273 0  -1.087608738885889 0.6161227402872302 0  -1.102401580435444 0.5892459210324973 0  -1.116530376494394 0.5620141620682586 0  -1.129986616404304 0.5344438667878525 0  -1.142762194629413 0.5065516425062374 0  -1.154849415639108 0.4783542904563624 0  -1.166240998543424 0.4498687956687354 0  -1.176930081478776 0.4211123167402754 0  -1.186910225741296 0.3921021754986143 0  -1.196175419665261 0.362855846568078 0  -1.2047200822443 0.3333909468436231 0  -1.21253906649318 0.3037252248790801 0  -1.219627662548161 0.2738765501960876 0  -1.225981600504038 0.2438629025201608 0  -1.231597052986177 0.2137023609503765 0  -1.236470637455976 0.1834130930692023 0  -1.240599418248387 0.1530133439990204 0  -1.243980908340246 0.122521425411951 0  -1.246613070848363 0.09195570449958466 0  -1.248494320256466 0.06133459290927246 0  -1.249623523370255 0.03067653565364041 0  -1.25 1.530808498934192e-16 0  -1.249623523370255 -0.0306765356536401 0  -1.248494320256466 -0.06133459290927215 0  -1.246613070848363 -0.09195570449958437 0  -1.243980908340246 -0.1225214254119507 0  -1.240599418248387 -0.1530133439990201 0  -1.236470637455976 -0.183413093069202 0  -1.231597052986177 -0.2137023609503762 0  -1.225981600504038 -0.2438629025201605 0  -1.219627662548161 -0.2738765501960873 0  -1.21253906649318 -0.3037252248790798 0  -1.2047200822443 -0.3333909468436228 0  -1.196175419665261 -0.3628558465680776 0  -1.186910225741296 -0.392102175498614 0  -1.176930081478776 -0.4211123167402752 0  -1.166240998543424 -0.4498687956687352 0  -1.154849415639108 -0.4783542904563621 0  -1.142762194629413 -0.5065516425062371 0  -1.129986616404304 -0.5344438667878523 0  -1.116530376494394 -0.5620141620682583 0  -1.102401580435444 -0.5892459210324971 0  -1.087608738885889 -0.6161227402872299 0  -1.07216076250034 -0.6426284302415269 0  -1.056066956562134 -0.6687470248588712 0  -1.039337015378182 -0.6944627912745025 0  -1.02198101643948 -0.7197602392723067 0  -1.004009414350806 -0.7446241306155416 0  -0.9854330345332579 -0.7690394882257834 0  -0.9662630667034213 -0.7929916052045566 0  -0.946511058133106 -0.8164660536922207 0  -0.9261889066936989 -0.8394486935587731 0  -0.9053088536893338 -0.8619256809213336 0  -0.8838834764831847 -0.8838834764831843 0  -0.8619256809213338 -0.9053088536893334 0  -0.8394486935587733 -0.9261889066936986 0  -0.8164660536922214 -0.9465110581331053 0  -0.7929916052045574 -0.9662630667034209 0  -0.7690394882257841 -0.9854330345332574 0  -0.7446241306155414 -1.004009414350806 0  -0.7197602392723066 -1.02198101643948 0  -0.6944627912745027 -1.039337015378182 0  -0.6687470248588716 -1.056066956562134 0  -0.6426284302415273 -1.07216076250034 0  -0.6161227402872302 -1.087608738885889 0  -0.5892459210324973 -1.102401580435444 0  -0.5620141620682586 -1.116530376494394 0  -0.5344438667878531 -1.129986616404304 0  -0.506551642506238 -1.142762194629413 0  -0.4783542904563629 -1.154849415639108 0  -0.4498687956687349 -1.166240998543424 0  -0.4211123167402749 -1.176930081478776 0  -0.3921021754986143 -1.186910225741296 0  -0.3628558465680781 -1.196175419665261 0  -0.3333909468436231 -1.2047200822443 0  -0.3037252248790802 -1.21253906649318 0  -0.2738765501960876 -1.219627662548161 0  -0.2438629025201608 -1.225981600504038 0  -0.2137023609503771 -1.231597052986176 0  -0.1834130930692029 -1.236470637455976 0  -0.1530133439990199 -1.240599418248387 0  -0.1225214254119506 -1.243980908340246 0  -0.09195570449958419 -1.246613070848363 0  -0.06133459290927254 -1.248494320256466 0  -0.03067653565364049 -1.249623523370255 0  -2.296212748401287e-16 -1.25 0  0.03067653565364003 -1.249623523370255 0  0.06133459290927207 -1.248494320256466 0  0.09195570449958373 -1.246613070848363 0  0.1225214254119501 -1.243980908340246 0  0.1530133439990195 -1.240599418248387 0  0.1834130930692024 -1.236470637455976 0  0.2137023609503766 -1.231597052986177 0  0.2438629025201604 -1.225981600504038 0  0.2738765501960872 -1.219627662548161 0  0.3037252248790797 -1.21253906649318 0  0.3333909468436227 -1.2047200822443 0  0.3628558465680776 -1.196175419665261 0  0.3921021754986139 -1.186910225741296 0  0.4211123167402745 -1.176930081478776 0  0.4498687956687345 -1.166240998543424 0  0.4783542904563625 -1.154849415639108 0  0.5065516425062375 -1.142762194629413 0  0.5344438667878527 -1.129986616404304 0  0.5620141620682583 -1.116530376494394 0  0.589245921032497 -1.102401580435444 0  0.6161227402872298 -1.087608738885889 0  0.6426284302415269 -1.07216076250034 0  0.6687470248588712 -1.056066956562134 0  0.6944627912745023 -1.039337015378182 0  0.7197602392723061 -1.02198101643948 0  0.7446241306155411 -1.004009414350806 0  0.7690394882257838 -0.9854330345332576 0  0.792991605204557 -0.9662630667034211 0  0.8164660536922209 -0.9465110581331058 0  0.8394486935587729 -0.9261889066936989 0  0.8619256809213336 -0.9053088536893338 0  0.8838834764831842 -0.8838834764831847 0  0.9053088536893333 -0.8619256809213339 0  0.9261889066936986 -0.8394486935587733 0  0.9465110581331053 -0.8164660536922214 0  0.9662630667034209 -0.7929916052045574 0  0.9854330345332574 -0.7690394882257843 0  1.004009414350806 -0.7446241306155416 0  1.02198101643948 -0.7197602392723066 0  1.039337015378182 -0.6944627912745027 0  1.056066956562134 -0.6687470248588716 0  1.07216076250034 -0.6426284302415274 0  1.087608738885889 -0.6161227402872304 0  1.102401580435443 -0.5892459210324974 0  1.116530376494394 -0.5620141620682587 0  1.129986616404304 -0.5344438667878532 0  1.142762194629413 -0.50655164250623
[...]
<PointData  Scalars="f_4054229"> 
<DataArray  type="Float64"  Name="f_4054229"  format="ascii">-6.3432434928210946e-01  -5.7388322222549648e-01  -4.9843087223870197e-01  -4.3770136840611196e-01  -3.5211648039120763e-01  -2.7684328477742381e-01  -2.0395422853531875e-01  -1.3351832603316588e-01  -3.5284128034907873e-02  2.4763110132861550e-02  8.5947844144563038e-02  1.7352464209566718e-01  2.2293408248922866e-01  2.7720951251238057e-01  3.4867132124413686e-01  4.2002230487077891e-01  4.6915916726107337e-01  5.2320955576886863e-01  5.6719552159554609e-01  6.5489318330136559e-01  6.5661454291247812e-01  6.9780616491275149e-01  6.9161679049169267e-01  7.4578996972985079e-01  7.6080318187447538e-01  7.9735541740617299e-01  8.5420224701472469e-01  9.0243531505088226e-01  9.3335508242294718e-01  8.9522114632904926e-01  9.0692918169860748e-01  9.5976551348983008e-01  9.5986479268590108e-01  9.6370180171710373e-01  9.5647230837516561e-01  8.4847861012452364e-01  8.6686186592321079e-01  8.3319959402776778e-01  8.5180844351967888e-01  8.4305063322789575e-01  8.1740765221701361e-01  8.1171905226760444e-01  8.2830848337653806e-01  8.4861730562524540e-01  7.9327358263016268e-01  7.8999097783503658e-01  7.4219552165021208e-01  7.1586951431742607e-01  6.8266123739642348e-01  6.5278010733296976e-01  6.1234343350705833e-01  5.9024000892994422e-01  5.9810726311957685e-01  5.7664194187869067e-01  5.4685806630359313e-01  5.4475380025555209e-01  5.1471584596122733e-01  4.8916557398178273e-01  4.4627050162538984e-01  3.9472900857799997e-01  3.6761416129509072e-01  3.3424466306902662e-01  3.3259411853531662e-01  3.2032815334319148e-01  3.2429910423073749e-01  3.5629369348324796e-01  3.8262878996321908e-01  4.5164666864167241e-01  4.9515066796667634e-01  5.3822510994495576e-01  5.4620492009192390e-01  6.3801053069110769e-01  7.3844637848045236e-01  8.6532728306379347e-01  1.0476202318188073e+00  1.0832390756801500e+00  1.2085277167265529e+00  1.3598168416309806e+00  1.4056559852161508e+00  1.4827696043993996e+00  1.6164490114502013e+00  1.6561447451052458e+00  1.7836975514130633e+00  1.9269816135000379e+00  1.9763414021151589e+00  2.0238194904968427e+00  2.1711454803392694e+00  2.2914006086434191e+00  2.3660467053605383e+00  2.3153513086020059e+00  2.3436126695889921e+00  2.4350081906739272e+00  2.5174657468631385e+00  2.5103551127013124e+00  2.5390897370862784e+00  2.5281195537171270e+00  2.5073445617265673e+00  2.5165806603109351e+00  2.4746896374569776e+00  2.4476473215119592e+00  2.3935413175272893e+00  2.2765254038900311e+00  2.1621547739135250e+00  2.0919579791488032e+00  1.9827505682398427e+00  1.8162596195890333e+00  1.6892125606018171e+00  1.5352863871277833e+00  1.4183328001184778e+00  1.1695795872823989e+00  8.5379795217192600e-01  6.3042256004239283e-01  2.5916467074892596e-01  -6.5487514081853979e-02  -4.3610538287558454e-01  -8.4467594337859242e-01  -1.2191107051504160e+00  -1.6058425281073898e+00  -1.8787144827214906e+00  -2.3028063322200558e+00  -2.6691368200161301e+00  -3.0150972124757658e+00  -3.3651158482051757e+00  -3.6715788155315758e+00  -3.9678450633461857e+00  -4.2471802936882312e+00  -4.5119996174282955e+00  -4.7905192146076327e+00  -5.0501860339935520e+00  -5.2395544453235807e+00  -5.4010828443669858e+00  -5.5894703607447092e+00  -5.7295998602378555e+00  -5.8234296172854449e+00  -5.8839837650894431e+00  -5.9588616213974612e+00  -5.9684550399887364e+00  -5.9217032419365720e+00  -5.8642033196052923e+00  -5.7386027959874308e+00  -5.6041427590196289e+00  -5.4210289774735916e+00  -5.2300121056950504e+00  -5.0254267604345078e+00  -4.8018079509121376e+00  -4.6137844066932514e+00  -4.3680023176920750e+00  -4.0940249294301116e+00  -3.8507612111951235e+00  -3.6710586624883237e+00  -3.5025891881550031e+00  -3.2788077365613781e+00  -3.0503835229730263e+00  -2.8179658189949821e+00  -2.5923398837335694e+00  -2.3619231030588459e+00  -2.1284408492954610e+00  -1.9160146850515758e+00  -1.7045470875161601e+00  -1.4968619125369369e+00  -1.3371374573451960e+00  -1.1699319680076783e+00  -9.1595531813089626e-01  -7.4295855588411663e-01  -5.7785328441889439e-01  -4.1373723541427798e-01  -2.6252907671497316e-01  -1.1425501193161272e-01  2.3484897727717960e-02  1.0848894790972145e-01  2.6683903804458087e-01  3.7390470741578952e-01  4.6839433556810883e-01  5.8135536772755403e-01  6.6900903435640502e-01  7.6643070193753216e-01  8.3224217070275874e-01  8.8503579646373942e-01  9.4281730251834206e-01  1.0138499312039870e+00  1.0457993325090469e+00  1.0644795013389663e+00  1.1075380370313723e+00  1.1251476331183132e+00  1.1595164906119655e+00  1.1595153526438888e+00  1.1551720673717591e+00  1.1516281009604634e+00  1.1305424388580552e+00  1.1219081446702990e+00  1.0916644853973265e+00  1.0970983710644748e+00  1.0489309091470718e+00  1.0133335990452368e+00  9.4636698565165245e-01  9.0067080661270060e-01  8.5327315453428099e-01  8.1096702326322700e-01  7.3661214844899447e-01  6.5222445736481371e-01  6.0155713324583682e-01  5.1956863186115798e-01  4.4241922422126390e-01  3.4823522541954244e-01  2.7849186232698037e-01  2.1871358365350038e-01  1.4248887118389875e-01  1.1960517650810928e-01  2.3661134067049228e-02  -2.8541817612763514e-02  -6.0994605853255911e-02  -9.0191806343629707e-02  -1.9689249210860038e-01  -2.5025952492860976e-01  -3.9260173724724406e-01  -4.7501158290957868e-01  -5.6163818245830632e-01  -5.6642729142581483e-01  -6.3274385495071084e-01  -6.9705499582977815e-01  -7.4465230542412719e-01  -8.7348355906845332e-01  -9.7092434745079270e-01  -1.0226621929518214e+00  -1.0625716987265690e+00  -1.1154978147360475e+00  -1.1336652448575317e+00  -1.0987747002557922e+00  -1.1203860588218193e+00  -1.2261390747167999e+00  -1.2535539941285281e+00  -1.2744330967897057e+00  -1.3006605760722258e+00  -1.3191888131531142e+00  -1.3252647372566349e+00  -1.3271765224986671e+00  -1.3234812789118870e+00  -1.3657581105228407e+00  -1.3345604093865380e+00  -1.3925319010151933e+00  -1.3527523119172837e+00  -1.3503689070051863e+00  -1.3294315080057673e+00  -1.2882530585851135e+00  -1.2514469623850903e+00  -1.2062386443909343e+00  -1.1703089867117635e+00  -1.1115479475278733e+00  -1.0948132790168355e+00  -1.0471044683286816e+00  -9.9502932114053610e-01  -9.7353271633271488e-01  -9.1001720546466214e-01  -8.6139845422634997e-01  -7.6480094492645567e-01  -7.1201689356324516e-01  -2.6092932467976406e+00  -2.4711981863523680e+00  -2.3656093463873029e+00  -2.2591060760929822e+00  -2.1292780023405204e+00  -1.9869685385945386e+00  -1.8414075444084019e+00  -1.6956030959637391e+00  -1.5342372774580124e+00  -1.3739705906498372e+00  -1.2435450082435919e+00  -1.1108683887348088e+00  -9.6353923762750071e-01  -8.0353278937379491e-01  -6.3463713322176296e-01  -4.7293642287056553e-01  -2.9859088329603678e-01  -1.4330475553561367e-01  1.9036012022380019e-02  2.0117239788715410e-01  3.7551509926086979e-01  5.3467733369348214e-01  7.1421431440962535e-01  8.8328806624675427e-01  1.0439845341750948e+00  1.2152419810178789e+00  1.3585128454992921e+00  1.5178884112017790e+00  1.6541202586322010e+00  1.7993757968519879e+00  1.9665787707009732e+00  2.1108313081260319e+00  2.2363354957054726e+00  2.3589022528725323e+00  2.4756768906421871e+00  2.5707630204689544e+00  2.6259446221566369e+00  2.7219694497793516e+00  2.8264316080885563e+00  2.9334545627389437e+00  3.0329096972409850e+00  3.0831141560731683e+00  3.0911850175089617e+00  3.1226539796008765e+00  3.1743190986789189e+00  3.2440007733407392e+00  3.2799551993278691e+00  3.3039348370655635e+00  3.3280991361545178e+00  3.3369775768956287e+00  3.3704628563825034e+00  3.3209782522772411e+00  3.3284002404596955e+00  3.3277661224056212e+00  3.3030947397030834e+00  3.2759010023450208e+00  3.2434489587341582e+00  3.2232325978954863e+00  3.1649464963145770e+00  3.0894944645688782e+00  3.0050381042171832e+00  2.9279733874724818e+00  2.8935348364225271e+00  2.8329932952880523e+00  2.7100320467982093e+00  2.5909018380569844e+00  2.5050213804411192e+00  2.3922913343682581e+00  2.2423572590580640e+00  2.1204066106758650e+00  2.0078367486518554e+00  1.8891956120760611e+00  1.7445669956685785e+00  1.5866250806258508e+00  1.4725707293739410e+00  1.3155085848089536e+00  1.1351708223539765e+00  9.9785954767563645e-01  8.5970468914288645e-01  6.5087352888296057e-01  4.4131533223963521e-01  3.0191463979993333e-01  1.1997308521958426e-01  -9.4667971192014505e-02  -2.5225340738192015e-01  -4.6716844465058072e-01  -6.6054813803143397e-01  -8.4123208102398850e-01  -1.0082098525510792e+00  -1.2220241175583260e+00  -1.4364424730366570e+00  -1.6064563639493907e+00  -1.8512087385543938e+00  -2.0510871527556662e+00  -2.1751832110192639e+00  -2.3665522695101573e+00  -2.5882766407918263e+00  -2.7597506095966988e+00  -2.9173939005977201e+00  -3.1562081647988594e+00  -3.3348722403487923e+00  -3.4793638216021243e+00  -3.6379296519684132e+00  -3.8129730415718512e+00  -4.0111317226393108e+00  -4.1621261327041124e+00  -4.3150352106789311e+00  -4.4709506993162833e+00  -4.6261098760966339e+00  -4.7543119880680811e+00  -4.9036818023656767e+00  -5.0552860632932095e+00  -5.1704657988267408e+00  -5.2638725564966808e+00  -5.3555575054605189e+00  -5.4380928431677509e+00  -5.5054477189369484e+00  -5.5523177272729152e+00  -5.5889451942987307e+00  -5.6046222374489858e+00  -5.6011926091298800e+00  -5.5783063794354319e+00  -5.5256388194470425e+00  -5.4486554009906012e+00  -5.3535348945132837e+00  -5.2471011228534978e+00  -5.1323425542807417e+00  -4.9819314254971054e+00  -4.8215249940309750e+00  -4.6258858107194847e+00  -4.4257075567700799e+00  -4.2145918026401432e+00  -4.0110144575836495e+00  -3.8023130818084643e+00  -3.5623520763519294e+00  -3.3063520253415830e+00  -3.0392458997405036e+00  -2.7800540301466499e+00  -2.4981256836742292e+00  -2.2362530326214407e+00  -1.9465020314913681e+00  -1.6557922105783820e+00  -1.3974193398447741e+00  -1.0838144254629423e+00  -8.0912665729371491e-01  -5.0092065413241238e-01  -2.0288340853042233e-01  1.0722284473985300e-01  4.2163137983892346e-01  6.6539301746799484e-01  8.9628628199940930e-01  1.0506308587618145e+00  1.2773953573525469e+00  1.5085776804038653e+00  1.6353970760949010e+00  1.8017298651288596e+00  1.9897712402390788e+00  2.1600620743830210e+00  2.3094136874060873e+00  2.4508755859979416e+00  2.6222681045878260e+00  2.7793623277446922e+00  2.9224006605515189e+00  3.0510663070254100e+00  3.1570033166414411e+00  3.2701757774347890e+00  3.3402262618732883e+00  3.4409420081671871e+00  3.5757137721323926e+00  3.6426646853127624e+00  3.7057394442946303e+00  3.7005815165094922e+00  3.7555176855973338e+00  3.7751346666616667e+00  3.7450544580774041e+00  3.7441977370135602e+00  3.7467400533579593e+00  3.7350402644380787e+00  3.7264026838750017e+00  3.6934790648650861e+00  3.6399993341978041e+00  3.5898612822244909e+00  3.5102803780050529e+00  3.4392991351461562e+00  3.3566527691718027e+00  3.2607356026172178e+00  3.2200886464018583e+00  3.1690658796835032e+00  3.0943549759952158e+00  3.0032271028107314e+00  2.9623014017732170e+00  2.8868983222290963e+00  2.7638718603185040e+00  2.6378731825175117e+00  2.5160583454094665e+00  2.3451449099923662e+00  2.2031748106457258e+00  2.0336051054413518e+00  1.8866620405511534e+00  1.7405056561118979e+00  1.6436818962680368e+00  1.5447695188431343e+00  1.4016940712985051e+00  1.2461756195026326e+00  1.0987978331387056e+00  9.4249387765004944e-01  7.8166067215070167e-01  6.1348104448417917e-01  4.3769501187521082e-01  2.6142900062047891e-01  1.2259788317308488e-01  -6.8613873212771098e-02  -2.7814376540337554e-01  -4.3980096451492456e-01  -5.8368106276036924e-01  -7.3649830044280407e-01  -9.2702347262376239e-01  -1.1053289560109272e+00  -1.2474202443861719e+00  -1.3872754303988761e+00  -1.5170202758948002e+00  -1.6805882009802542e+00  -1.8288661828732740e+00  -1.9592156209691287e+00  -2.0736982691264085e+00  -2.2204256304469481e+00  -2.3166151700404396e+00  -2.4124572469788097e+00  -2.5589728621578676e+00  -2.6878465720227114e+00  -2.7809773210430206e+00  -2.8417754312792760e+00  -2.8696233996634350e+00  -2.9689080315062806e+00  -3.0677074854827437e+00  -3.1212798007409037e+00  -3.1253101129631058e+00  -3.1566157046053673e+00  -3.2072371421574526e+00  -3.2331817797988864e+00  -3.2543813079204296e+00  -3.2423056046188021e+00  -3.2370714934700433e+00  -3.2483076120263150e+00  -3.2543628946973802e+00  -3.2464057138100566e+00  -3.2478142771705700e+00  -3.2191402576363202e+00  -3.1631698584962082e+00  -3.1118378251519618e+00  -3.0579866473130681e+00  -3.0009770222161363e+00  -2.9371062410099649e+00  -2.8549109939000066e+00  -2.7746780755529925e+00  -2.6910096760576807e+00  -7.2582268043152709e-01  -1.1269577761661409e+00  -3.4972855375376272e-01  -1.2571905621343280e+00  1.1987124926597045e-01  -1.2166761938330597e+00  5.2569882253797151e-01  -1.0887773577405295e+00  9.9593529607365028e-01  -7.9164015037856339e-01  1.3896014018385767e+00  -4.5017563416922374e-01  1.6733876454772503e+00  -7.1239262928773375e-02  1.8072737870625111e+00  3.7435205379432002e-01  1.8462543757084686e+00  8.2552301123418748e-01  -3.7030047065717947e-01  1.8129459776995540e+00  -2.4202038849301064e-01  -3.4698220608757790e-01  -2.6670262600694628e-01  -1.6795942015273655e+00  -3.4315118909774184e-01  -1.0956518490452680e+00  -2.0432539530736373e+00  1.2307459617164602e+00  -2.0875339791108805e-01  -3.2987983204161697e-01  -2.1007821862796896e+00  1.6965615814568535e+00  4.3304293980017838e-01  -4.1538547354786443e-01  6.1300752356300690e-02  -1.9543800784780716e+00  1.1170647238835196e+00  -2.4968112502439249e-01  1.6530495953379909e+00  -1.3939127718415878e-01  -4.3305971428118456e-01  -1.6620775360998108e+00  -2.9057201498681878e-01  4.5942326801848843e-01  -1.0696911388299904e-01  -1.5074384436930581e+00  1.6539444113792090e+00  1.4390805986100108e+00  -4.6350335236724438e-01  -8.1794416638497638e-02  -3.4359998365443362e-01  2.0348658162008175e+00  7.7200857978167614e-01  -1.1460053415286692e-01  -3.1347026047368790e-02  -7.8808752970478346e-01  1.2095473373440913e+00  1.0178724086917897e-02  -4.7518833326991618e-02  1.5034404704926208e+00  -1.0970547550584564e+00  -1.9695813780156217e+00  -2.1897465395335267e+00  2.1765008067679172e+00  -2.1236808152960660e+00  -2.0044447225918169e+00  -5.5932085586013862e-03  1.0492563812163771e+00  2.4164417135716096e+00  5.6597070363588423e-02  8.4780476008156214e-01  7.8802258474521547e-01  -4.0272211841500311e-01  2.3300438895920759e+00  3.5008996214484672e-01  2.0620171995226708e+00  2.6648963525781539e+00  -1.1604228006374084e+00  -5.2261326028672117e-01  9.7491198609283639e-02  1.5000094974636319e-01  1.3827305580995410e+00  -7.5537593305623774e-01  7.0435277180890554e-01  -1.0185904571584337e+00  4.7362002618969445e-01  2.5121633259947838e+00  3.1995557097504679e-01  -1.3391906409402941e+00  4.0261522829764756e-01  -1.5139111679813131e+00  3.1901741884691492e-01  2.4980903099168317e+00  -1.9315118600813855e-01  2.9763735090792274e+00  1.2957357492097277e-01  1.0261696140962517e+00  6.8217359764726460e-01  1.3550347867244521e+00  -1.1872448485275890e+00  3.3555569736513767e-02  -2.3105520069724009e-01  4.5944065258042982e-02  -3.9696564368761483e-01  9.1720676062600914e-01  -7.6220796042880024e-01  -5.6447185076857642e-01  -7.1671176587839491e-01  2.4094896625504898e+00  1.9382449075082378e-01  -6.7112814379099206e-01  -1.0680178687857256e+00  -1.4055829004340617e-01  3.0273143503812525e+00  1.3928302996557711e-02  -5.9948273602609981e-01  -1.2894207061489762e+00  2.7251726154912026e-01  2.2005354673495564e-01  2.6088170772146921e+00  1.3855123554616138e+00  7.4209737620285543e-01  -4.5993830623388832e-01  -8.2895449341272520e-01  9.8323128665027820e-02  2.6009347828156564e+00  -4.4262058446609281e-01  -4.3378317141130873e-01  -2.6034061893417554e-01  -9.9413105802729107e-01  -2.3890145616452214e+00  1.0290320869489631e+00  -2.6186916052367126e-03  1.2952565165453533e+00  -2.1997853069846123e+00  2.2846125328450597e+00  -1.7418144340825554e+00  -1.3523145611835561e+00  3.0627436317088481e+00  1.4191515108103274e+00  -7.5114634826066295e-01  -7.7160683224917470e-01  1.6068520517173748e-01  2.5045568588476813e-01  -2.6285716738564222e+00  -2.6692683445861900e+00  -5.3600773360284282e-01  -2.7722482212061035e-02  -8.2579271307297997e-01  1.4267765993007002e+00  -5.2677754120194131e-01  2.8983906459225578e-01  -2.2460362696201963e-01  1.0592740244768137e+00  -7.0226982666762439e-01  -5.7431178200432431e-01  -4.3340758748798303e-01  2.3589269081853326e-01  -4.9785198215273174e-01  -6.2921085071059824e-01  -1.3901942336498885e-02  4.9097551730869810e-01  1.3679565307453916e+00  6.3855394912762076e-01  1.1816274171841483e+00  -1.6432757709387740e+00  -2.6453362634337370e+00  -2.6951875533939700e+00  9.8686084583727282e-02  -7.1834757765008217e-01  2.5843912781665718e-01  -1.2010806336446977e+00  -3.1882920196722531e-01  1.3195655338051213e+00  -8.4309857579255454e-01  1.8501656454948321e+00  3.2014847080232484e-01  -9.7011512820960399e-01  6.2637228209688334e-01  1.9928722862518808e+00  -1.6834387568770787e-01  -9.2704559680974907e-02  1.2887077328774530e+00  -2.4395292412529241e+00  -2.4773824903007831e+00  5.9620705785425487e-01  -1.5796986372289930e+00  1.4187727839151090e+00  1.1111410274466598e+00  1.9981245604410385e+00  3.0935712491144671e+00  1.4453842152641030e+00  3.3609318735096971e-01  5.4681056281322704e-01  -1.5175787036157493e+00  -7.2410334368805640e-01  -6.2387695945530108e-01  1.4155979348762258e+00  -4.3425692629586227e-01  7.9326941146002294e-01  -2.6675759423033962e-01  -1.6929231666547264e+00  -2.0264508293402561e+00  -1.3389343639556786e+00  1.7043876477180697e+00  -1.7140725635998917e+00  -7.8634401147640240e-02  8.6269382886842627e-01  1.2196642502534505e-01  4.6942177615055936e-01  2.4285067766906692e+00  2.1789168485060899e+00  3.3407980096502704e-01  3.7487481150272067e-01  -5.1169140324386064e-01  1.3227413332751397e+00  1.8589771853676311e+00  -1.5513631940688883e+00  -5.5179934585269730e-01  2.9872725519199430e+00  -1.4497056304795932e+00  2.3929552869197043e-01  2.9006882941770390e-01  1.9135571302781218e+00  3.9495070937110528e-02  -3.7738383547257659e-01  2.5718597848947733e-01  -1.0809903707573545e+00  -1.8391957454237406e+00  1.6110129787809151e+00  1.1643044807899847e+00  -1.8214907308857193e+00  -2.6553988792797982e+00  -8.2650213042916409e-01  9.4467881843783785e-01  -2.9981248821134837e-01  9.0878600263497322e-01  8.6688549594176978e-01  1.1116183710624570e+00  -1.8090239403605477e+00  2.6689595677071769e+00  -6.9069488732758810e-01  -2.7235983506164385e+00  3.3293965633879213e-01  -2.1265561830502620e+00  -2.0353401460789719e-01  2.1884547626510047e+00  -9.7047928985506915e-01  1.2738400117160329e+00  -4.4351250504774886e-01  2.6284845977806826e+00  5.3289244580976347e-01  2.7853166672342264e+00  8.0025824078549246e-01  -9.9107137006690049e-01  1.3315844358739781e+00  -3.6428784339237641e-01  -1.0575652909598982e-01  1.5667141366519299e+00  1.9572976338791561e+00  6.7422813188987074e-01  5.4232857567701975e-01  3.1507110191278337e-01  2.9772522574770360e-01  -2.2411483574917144e+00  4.0407155685404100e-01  2.8772936427351379e+00  1.8229065300744050e+00  2.3910005900180464e+00  -1.1033980203276197e+00  -1.3996936500678612e+00  1.9840160246889746e+00  1.7617831044682588e+00  2.7898720148083156e-01  1.1719432733839130e+00  -9.3844557719442290e-01  1.0861852639421494e+00  1.3770429250124042e-01  1.5170339220204589e+00  6.5261971845116118e-01  2.0639689487050261e+00  4.9632597211457308e-01  -6.6093369899424625e-01  2.1170099394648418e+00  -5.8121425233909529e-01  -9.2395097724132880e-01  -1.1438231452850123e+00  2.5885583020048402e+00  1.5783814023135925e+00  1.0522699835679954e+00  2.0224164769158568e+00  1.7775962793513129e+00  -3.1882897411127137e-01  -8.1438601210018524e-01  2.7883327034099645e+00  5.6355747688508206e-01  1.5384522797134468e+00  2.7015917395135952e-01  -2.6903168678472813e+00  1.8386511613181993e+00  1.8076022021077929e+00  2.29346291143