<?xml version="1.0"?>
<VTKFile type="UnstructuredGrid"  version="0.1"  >
<UnstructuredGrid>
<Piece  NumberOfPoints="2954" NumberOfCells="5142">
<Points>
<DataArray  type="Float64"  NumberOfComponents="3"  format="ascii">-20 2.5 0  -20 0 0  -1 0 0  -0.9996988186962042 0.02454122852291233 0  -0.9987954562051724 0.04906767432741797 0  -0.9972904566786902 0.07356456359966773 0  -0.9951847266721968 0.09801714032956083 0  -0.99247953459871 0.1224106751992163 0  -0.989176509964781 0.1467304744553618 0  -0.9852776423889412 0.1709618887603012 0  -0.9807852804032304 0.1950903220161286 0  -0.9757021300385285 0.21910124015687 0  -0.970031253194544 0.2429801799032641 0  -0.9637760657954398 0.2667127574748985 0  -0.9569403357322088 0.2902846772544624 0  -0.9495281805930367 0.3136817403988914 0  -0.9415440651830207 0.3368898533922203 0  -0.9329927988347388 0.3598950365349883 0  -0.9238795325112867 0.3826834323650899 0  -0.9142097557035307 0.4052413140049899 0  -0.9039892931234433 0.427555093430282 0  -0.8932243011955152 0.4496113296546069 0  -0.8819212643483549 0.4713967368259979 0  -0.8700869911087113 0.4928981922297841 0  -0.857728610000272 0.5141027441932218 0  -0.8448535652497071 0.5349976198870972 0  -0.8314696123025453 0.5555702330196022 0  -0.8175848131515836 0.5758081914178454 0  -0.8032075314806448 0.5956993044924335 0  -0.7883464276266062 0.6152315905806269 0  -0.773010453362737 0.6343932841636455 0  -0.7572088465064846 0.6531728429537766 0  -0.7409511253549589 0.6715589548470186 0  -0.7242470829514668 0.6895405447370671 0  -0.7071067811865475 0.7071067811865476 0  -0.6895405447370669 0.7242470829514669 0  -0.6715589548470184 0.740951125354959 0  -0.6531728429537765 0.7572088465064847 0  -0.6343932841636454 0.7730104533627371 0  -0.6152315905806267 0.7883464276266063 0  -0.5956993044924334 0.8032075314806449 0  -0.5758081914178453 0.8175848131515837 0  -0.555570233019602 0.8314696123025455 0  -0.534997619887097 0.8448535652497072 0  -0.5141027441932217 0.8577286100002721 0  -0.492898192229784 0.8700869911087115 0  -0.4713967368259977 0.881921264348355 0  -0.4496113296546067 0.8932243011955152 0  -0.4275550934302819 0.9039892931234434 0  -0.4052413140049897 0.9142097557035307 0  -0.3826834323650897 0.9238795325112867 0  -0.3598950365349882 0.9329927988347388 0  -0.3368898533922199 0.9415440651830208 0  -0.3136817403988914 0.9495281805930367 0  -0.2902846772544622 0.9569403357322089 0  -0.2667127574748983 0.9637760657954398 0  -0.2429801799032639 0.970031253194544 0  -0.2191012401568697 0.9757021300385286 0  -0.1950903220161282 0.9807852804032304 0  -0.1709618887603012 0.9852776423889412 0  -0.1467304744553616 0.989176509964781 0  -0.1224106751992162 0.99247953459871 0  -0.09801714032956065 0.9951847266721969 0  -0.07356456359966733 0.9972904566786902 0  -0.04906767432741801 0.9987954562051724 0  -0.02454122852291214 0.9996988186962042 0  6.123233995736766e-17 1 0  0.02454122852291226 0.9996988186962042 0  0.04906767432741813 0.9987954562051724 0  0.07356456359966745 0.9972904566786902 0  0.09801714032956077 0.9951847266721968 0  0.1224106751992163 0.99247953459871 0  0.1467304744553617 0.989176509964781 0  0.1709618887603014 0.9852776423889412 0  0.1950903220161283 0.9807852804032304 0  0.2191012401568698 0.9757021300385286 0  0.242980179903264 0.970031253194544 0  0.2667127574748984 0.9637760657954398 0  0.2902846772544623 0.9569403357322089 0  0.3136817403988916 0.9495281805930367 0  0.3368898533922201 0.9415440651830208 0  0.3598950365349883 0.9329927988347388 0  0.3826834323650898 0.9238795325112867 0  0.4052413140049899 0.9142097557035307 0  0.4275550934302822 0.9039892931234433 0  0.4496113296546066 0.8932243011955153 0  0.4713967368259978 0.8819212643483549 0  0.4928981922297841 0.8700869911087113 0  0.5141027441932217 0.8577286100002721 0  0.5349976198870973 0.844853565249707 0  0.5555702330196023 0.8314696123025452 0  0.5758081914178453 0.8175848131515837 0  0.5956993044924335 0.8032075314806448 0  0.6152315905806268 0.7883464276266062 0  0.6343932841636455 0.773010453362737 0  0.6531728429537768 0.7572088465064845 0  0.6715589548470183 0.7409511253549591 0  0.6895405447370669 0.7242470829514669 0  0.7071067811865476 0.7071067811865475 0  0.724247082951467 0.6895405447370668 0  0.7409511253549591 0.6715589548470183 0  0.7572088465064846 0.6531728429537768 0  0.773010453362737 0.6343932841636455 0  0.7883464276266063 0.6152315905806268 0  0.8032075314806449 0.5956993044924334 0  0.8175848131515837 0.5758081914178453 0  0.8314696123025452 0.5555702330196022 0  0.8448535652497071 0.5349976198870972 0  0.8577286100002721 0.5141027441932217 0  0.8700869911087115 0.492898192229784 0  0.881921264348355 0.4713967368259976 0  0.8932243011955153 0.4496113296546065 0  0.9039892931234433 0.4275550934302821 0  0.9142097557035307 0.4052413140049899 0  0.9238795325112867 0.3826834323650898 0  0.932992798834739 0.3598950365349881 0  0.9415440651830208 0.3368898533922201 0  0.9495281805930367 0.3136817403988915 0  0.9569403357322088 0.2902846772544623 0  0.9637760657954398 0.2667127574748984 0  0.970031253194544 0.2429801799032639 0  0.9757021300385286 0.2191012401568698 0  0.9807852804032304 0.1950903220161282 0  0.9852776423889412 0.1709618887603012 0  0.989176509964781 0.1467304744553617 0  0.99247953459871 0.1224106751992162 0  0.9951847266721969 0.0980171403295606 0  0.9972904566786902 0.07356456359966743 0  0.9987954562051724 0.04906767432741801 0  0.9996988186962042 0.02454122852291229 0  1 0 0  20 0 0  20 2.5 0  0 2.5 0  -10 2.5 0  10 2.5 0  -10.5 0 0  -5 2.5 0  10.5 0 0  5 2.5 0  -5.75 0 0  5.75 0 0  -15.25 0 0  -15 2.5 0  15.25 0 0  15 2.5 0  -17.625 0 0  -17.5 2.5 0  17.5 2.5 0  17.625 0 0  12.5 2.5 0  12.875 0 0  -12.5 2.5 0  -12.875 0 0  -2.5 2.5 0  2.5 2.5 0  -8.125 0 0  -7.5 2.5 0  8.125 0 0  7.5 2.5 0  -3.375 0 0  3.375 0 0  -18.75 2.5 0  20 1.25 0  16.4375 1.19375 0  -16.25 2.5 0  13.75 2.5 0  -14.0625 0 0  -11.6875 0 0  11.6875 0 0  8.75 2.5 0  -8.75 2.5 0  6.9375 0 0  6.25 2.5 0  -6.25 2.5 0  -9.3125 0 0  -6.9375 0 0  9.3125 0 0  11.25 2.5 0  -11.25 2.5 0  3.75 2.5 0  4.5625 0 0  -4.5625 0 0  -3.75 2.5 0  -13.75 2.5 0  14.0625 0 0  -16.4375 0 0  -20 1.25 0  -18.8125 0 0  18.75 2.5 0  -18.21875 1.2359375 0  18.125 1.278125 0  -15.84375 1.2125 0  -14.375 1.30859375 0  14.65625 1.203125 0  2.1875 0 0  -2.1875 0 0  13.125 1.315625 0  3.125 1.315625 0  -3.125 1.315625 0  -12.28125 1.1890625 0  -5.15625 1.184375 0  11.09375 1.184375 0  5.625 1.325 0  -10.97262068800044 1.220713793599868 0  9.375 1.32734375 0  -6.875 1.32734375 0  -9.67626828410207 1.24449497187193 0  8.061334925608099 1.312208731402025 0  -8.188665074391901 1.312208731402025 0  -1.25 2.5 0  1.25 2.5 0  4.37465139623265 1.41327350462657 0  16.25 2.5 0  6.84375467392576 1.430449641528851 0  -1.846573640185365 1.334702047669377 0  1.846573640185365 1.334702047669377 0  -17.02955351149946 1.396129584721571 0  16.4375 0 0  18.8125 0 0  -13.31314667860176 1.511193493282891 0  -4.122005747945582 0.961844908681634 0  12.12799425205442 0.961844908681634 0  15.54930641305724 1.660405980876393 0  19.0578783583929 0.9559530595267438 0  8.71875 0.6864560603786576 0  -7.53125 0.6864560603786576 0  -0.6257799091428727 1.819008129832856 0  0.6257799091428734 1.819008129832855 0  6.291331569065717 0.7194652423646902 0  -19.11204717950418 0.9044926794710327 0  -4.488713231834613 1.772186102355655 0  11.76128676816539 1.772186102355655 0  -19.28185607205105 1.781856072051052 0  19.30868080343342 1.808680803433421 0  9.90625 0.6371857066656857 0  -6.34375 0.6371857066656857 0  3.796921710049233 0.7617406159238448 0  7.392020585015773 0.7480839107774819 0  -8.910372062800235 0.7929553447587234 0  10.2506781820361 1.451853913138859 0  -5.999321817963904 1.451853913138859 0  4.957643119381741 0.7716423099297361 0  17.29984375 0.8640625 0  15.41193625859067 0.8279888354083842 0  -13.72251704931534 0.7728002662082776 0  16.875 2.5 0  17.12178336313261 1.690954734835967 0  -11.64001625260176 1.74572103154608 0  2.477726735235857 0.7850262278604345 0  13.46875 0 0  13.765625 0.7802887470308788 0  -2.78125 0 0  -2.477726735235857 0.7850262278604346 0  -10.33383379274331 1.744431431923121 0  13.91957519050334 1.653419259628842 0  -15.08147780274903 0.8341506893754731 0  -15.14066649024666 1.671962869821843 0  -8.950686484882164 1.678622661163363 0  -17.55392917606836 0.794731598412167 0  -16.80247533599675 0.6688259240674158 0  -12.94289066923278 0.7766744225472476 0  -9.90625 0 0  -10.31601468672093 0.7730817089126454 0  -18.21875 0 0  -12.28125 0 0  -17.68515668569534 1.768907656575843 0  18.21875 0 0  10.85059123027421 1.880344717307101 0  -5.399408769725794 1.880344717307101 0  -3.738137326223278 1.749164834446819 0  -3.125 2.5 0  12.46235897590077 1.601301060091387 0  -11.09375 0 0  -11.61661448001209 0.7781698802173554 0  -15.625 2.5 0  -1.764022608759088 0.6027229563180789 0  1.59375 0 0  -8.125 2.5 0  8.125 2.5 0  8.713468311289519 1.727645658498745 0  9.375 2.5 0  -7.536531688710481 1.727645658498745 0  -6.875 2.5 0  14.375 2.5 0  17.78381794101733 1.874391370085592 0  18.59891476281433 1.80649740393129 0  -18.58835555265984 1.824268641341969 0  1.806126122135773 0.6510673837470153 0  -16.875 2.5 0  -16.36681393636619 1.755298393865037 0  -16.13072438662071 0.6014017614895231 0  -13.92460230791385 1.83195710210235 0  -14.40198779087891 0.6105385965811564 0  20 0.625 0  19.40625 0 0  14.6875 1.888836596385542 0  14.65625 0 0  12.78248197181444 0.6991460920542635 0  -3.467518028185561 0.6991460920542635 0  13.125 2.5 0  2.491957142932539 1.738660596534321 0  3.125 2.5 0  1.875 2.5 0  3.718973573227002 1.75927763286174 0  -2.491957142932539 1.738660596534321 0  -1.875 2.5 0  -9.375 2.5 0  6.2001972846108 1.772767401802766 0  5.625 2.5 0  5.027483518098582 1.760895488350309 0  5.625981449127788 0.6566963631252629 0  -12.30101114679273 1.859484693920165 0  9.742489932362783 1.884363450023167 0  -6.507510067637216 1.884363450023166 0  1.13492303295015 1.283502262067074
[...]
<PointData  Scalars="f_5623"> 
<DataArray  type="Float64"  Name="f_5623"  format="ascii">-1.3682291235862560e-06  -5.7890048685900104e-07  5.8699299029248250e-06  1.0445421988822974e-06  1.1621713463125047e-07  -8.8030805999901797e-08  -1.1446879471289860e-06  -1.0049476516384675e-05  -1.0058487081471362e-05  -3.4963478056486976e-06  1.6457553152348153e-06  -9.8609711069675434e-07  -4.0954671654940660e-07  -1.3311575971641568e-06  -8.3548975057779184e-06  -2.9904840092140138e-06  -2.7380709734363775e-06  -3.5600262160224697e-06  -1.4231711042904302e-05  -2.7727328053332126e-06  -8.1204869569812556e-06  -6.6261652654087263e-06  -4.2476554069978262e-06  -7.8163534389380484e-06  -7.4852853303772448e-06  -1.0598475497820589e-05  -5.3360287650961055e-06  -8.1553237930782166e-06  -5.2242526409964202e-06  -9.3856146390138259e-06  -7.4867915445598192e-06  -1.1375733220666053e-05  -7.7765224473503961e-06  -4.6959471764172529e-06  -5.9453946194474129e-06  -9.1504237675424806e-06  -4.8556573812241387e-06  -1.0774450988424867e-05  -7.9191086651446755e-06  -1.8731196866427415e-06  -5.7815807378296007e-06  -9.9149680782169772e-06  -7.0235636718189445e-06  -3.6748475303867571e-06  -2.1576561201431594e-07  -2.8901348905875586e-06  3.0705171015917107e-06  -3.9426008247160162e-06  -4.5995142533222889e-06  -8.0544231289816557e-06  -3.4695598637546559e-06  2.4392788186365259e-06  -4.3700467366551179e-06  -3.9298946229231139e-06  -3.9748106061356776e-07  4.0516724382177195e-06  -2.6432454686630736e-06  1.8374760071141922e-06  9.9494873107118216e-07  -4.1309608402509930e-06  -2.1319432054496527e-07  2.7787274291027591e-06  7.6908707956612993e-06  -7.9918411706640483e-07  6.5578482600232454e-06  8.9182361833604804e-06  1.2242477202198895e-05  5.2207188970056278e-06  5.9482976532452119e-06  4.8736152162781855e-06  4.4396710997428169e-06  1.1319897623797367e-05  2.7583541036056343e-06  4.4868409963907787e-06  4.1245243413353566e-06  1.5060391118906429e-05  5.5161162056113323e-06  2.3246812451378323e-05  5.1796605196016113e-06  1.3762018696113513e-05  7.2629399424029545e-06  1.5153757098702582e-05  9.6597313711024626e-06  1.4736921423372292e-05  6.5139235659204989e-06  5.8976296281829358e-06  1.0334580338370695e-05  1.4676778624268403e-05  8.8600401553482626e-06  7.2637852073941423e-06  5.9261406983499702e-06  1.1581834277388489e-05  8.6515950480771513e-06  1.0185306699564340e-05  1.0240796346975833e-05  1.0586775285706531e-05  8.4756056172259064e-06  4.7509152999044536e-06  6.0038821421396427e-06  5.5518324177954589e-06  2.7865075970806666e-06  3.5620828188975435e-06  5.0982531927223721e-06  5.0093712946810781e-06  1.9129803904947485e-06  6.2638282946605548e-06  5.6284038175696145e-09  3.0593867075603356e-06  -1.9269244599563438e-06  1.8540143053417014e-06  2.4108915708760550e-06  -8.7929521727570815e-06  -6.7155700478542437e-06  -1.0037184902912564e-05  -1.9823052996654379e-06  -6.5259644884583556e-06  4.7234510593466671e-07  -5.6943183924922621e-08  -1.4259647483979141e-06  -1.7646625585708413e-06  -1.3903398758208918e-06  -5.4271910726758951e-06  -1.2299721719636256e-06  6.2884799133911458e-08  1.8950618376055319e-07  -1.6813494959643618e-07  -1.7782094179981575e-06  -3.6678097036289870e-07  5.8241111769174656e-08  3.4411337470771682e-07  8.7236367529279383e-07  -5.3061651762148634e-09  -5.0581444357952508e-08  3.0822768099885694e-07  -6.5542636829738635e-08  2.0749644140428605e-07  2.2551554074687169e-07  -7.1704364098365951e-08  -2.1603982730189792e-07  -1.8388171688035518e-07  -2.2125947303883543e-07  3.8002199763891873e-07  3.8501562682680803e-07  -7.3823239177101919e-09  2.1823522667016240e-07  9.7977070675209555e-09  -4.8741379899983013e-07  4.9583304116555278e-07  4.8388999634581376e-07  6.5691594657822497e-07  1.5736740751403044e-07  3.6938564574628725e-07  3.2832729646471929e-07  -4.5662520979213083e-08  -2.9692179977139381e-08  -2.5127927754333530e-07  4.5252697987335327e-07  -3.6811708963562529e-07  5.8250831295887794e-07  5.5884886712852377e-08  -1.2079611963401393e-07  -1.2935920018009600e-08  -7.2488220881043078e-08  8.7673547940966670e-07  -5.3747526471653661e-08  2.1969595596369213e-07  -1.5838767546437971e-07  1.5697026091779450e-07  -4.8766203417497835e-09  -6.7824189199623997e-08  6.2164360525069052e-07  -4.3616832005549243e-08  -1.5436919012905754e-07  -2.0895125197118586e-07  1.6388135526212962e-07  -1.0630773355733057e-07  3.4106840358280330e-07  2.5417220983277783e-07  1.5937618049793442e-09  1.9372195032614318e-07  3.8285454330954838e-07  7.1781903614764211e-08  3.9151986550679685e-08  4.0411102927103220e-08  1.8481200750940045e-07  3.6415839977382661e-08  -1.2686733171435805e-07  -2.5941500352654549e-07  1.1432895875216750e-07  2.7819347921285110e-08  3.1012691411563356e-07  -7.4254839333950386e-08  2.2298655036543978e-08  3.7668898848054154e-07  4.0887265771073894e-08  2.8630078748135025e-07  1.7481637061506682e-07  4.8037942806443146e-08  -1.3122850913055363e-08  7.4320759742825270e-08  1.4010970896981360e-07  2.0011972732985457e-07  8.7475417383484768e-08  1.3012818752867994e-08  7.3947424515163728e-08  5.1564609218124474e-08  7.7311567951264139e-08  6.2499360573029242e-08  1.1697718736284051e-07  1.1461727271309281e-07  -1.7625823231654739e-07  3.7669824580626617e-07  4.1759098268196203e-08  2.5600885524987476e-08  4.7434425782541359e-09  5.7775607529647554e-09  7.6813764900276978e-09  -2.5883385518836575e-09  -3.3667013392285718e-07  -8.4625943607815283e-09  2.7227611292692851e-07  4.2958909528139980e-08  1.2054903932828918e-07  1.8832332663937858e-08  1.0050794601836678e-07  4.0896170263259847e-07  2.4151911165876168e-07  -2.9183277772415763e-08  1.5475220484931264e-07  -1.1299121793076237e-07  2.2131144964281505e-08  5.3144862291055522e-08  3.1028653148866307e-07  2.1392066965836586e-08  2.6398506888137889e-07  -2.6164479015497483e-08  1.2731699053110628e-08  2.8679395709962319e-07  -1.1362992584953993e-08  2.0489168455818216e-07  2.9719068322532190e-07  1.1552482028711254e-07  2.8976912921001546e-08  2.8790654242444376e-08  -5.8536933220574386e-08  2.6946369875140160e-07  2.6572835430070908e-07  3.6994688452741218e-07  3.4562037869965687e-08  5.8082060892604967e-09  5.1323555406229276e-08  2.0460644037998814e-08  4.5018192800692955e-07  2.6639618481766476e-07  9.2713120564945938e-08  -5.4114436811091093e-08  1.8427562136409881e-07  4.0155135147112237e-08  6.3844426525975706e-08  4.8367315416997097e-07  -6.8544575303898563e-08  2.9871067976244912e-07  2.4453661426739887e-07  2.4061844913318728e-07  1.0324481645586060e-06  1.2998108365431481e-07  2.2059183205850128e-07  7.0539427464588881e-07  2.2743128956579674e-07  2.0795425318092343e-08  3.2894865073680456e-08  4.9365458845804455e-07  6.6974894599829692e-08  2.5144694880600662e-09  2.8981404543538666e-08  -9.0671006241151749e-08  1.0809037347748741e-07  3.5832867182292428e-07  -9.8102826643952122e-10  -1.1680534326891013e-06  -2.8648376756922813e-07  9.0286299152619817e-08  6.7589837069916974e-08  -4.6312284560817075e-07  3.2022106797255416e-08  -1.7223169431599941e-07  2.8219647347893275e-07  -6.1601516421329397e-08  -5.4279563879050181e-08  1.6422318465568593e-07  1.6739621934375055e-09  1.0519283908501946e-07  4.3258362606804178e-07  7.2287427688505241e-07  5.6500080748032491e-07  1.3379929187932554e-07  6.7740840791565285e-08  -1.7311359302956304e-07  2.0950454677520393e-07  1.1961034722741883e-07  1.3188444783750261e-07  3.5325331603371701e-08  2.7942514501782284e-06  2.5773225632656460e-08  -5.4753780801122592e-07  4.2592377912548310e-07  1.4540906191153020e-07  2.7555364182188023e-07  -2.3700451201457253e-08  1.6021714497215661e-07  -3.1953254685224544e-08  1.0569772156658475e-07  -3.0926468898405780e-09  2.4599995138186706e-07  -3.1051468941491859e-08  4.0473597303991543e-07  1.9707873991745476e-07  -1.0621013206537746e-07  -4.2157949478559349e-09  5.5305802927776193e-08  2.5597644212381033e-07  1.6677020563924352e-08  2.8580518771316313e-08  1.5259687761739440e-07  -7.1408687854231763e-10  2.1394861852215327e-07  2.5518300846513776e-07  9.0369775819269519e-09  4.9064059960412143e-08  2.8045660498142957e-07  4.9675115659826192e-08  4.7983773576015927e-07  3.2886462273636120e-08  8.9926512889823872e-08  2.1463979486922030e-07  3.7101566009774853e-07  5.0718004066218326e-07  8.2646513455027082e-07  3.9401606152573179e-07  -1.0793565953233771e-07  -1.8613428098402075e-07  1.5266830631305622e-08  2.4739525212011852e-07  -1.9988973304284209e-07  3.9413541137769563e-07  5.7533331447143996e-07  1.5638431476982442e-07  -4.8966547836762748e-08  2.5039192341578386e-08  5.1069965915867539e-07  -5.4428314035589529e-08  -3.6121689298251545e-07  3.6235879685637678e-07  1.8938866235196990e-08  -3.0567585832985187e-07  1.5125466164846976e-07  5.7862552944292317e-08  2.0655031938504646e-07  1.5012450536172551e-07  4.6820479852640135e-08  1.2092458211471251e-07  -6.4704496068678933e-09  1.2499212833948066e-06  1.2600199895674087e-06  -4.7795846431657179e-08  2.7454542199674061e-07  1.2916079090339881e-07  -5.6604563415481974e-07  4.3210356068714882e-08  -1.1207354302197133e-08  1.5660150989559785e-07  2.4945519651133161e-07  -1.3523010007056456e-07  -5.0479845786350679e-08  4.0829476364749381e-08  -5.1046332562425919e-08  -9.2882082176233586e-08  5.0428393149080851e-07  -1.4115389087295509e-07  -1.0982694251962423e-07  6.8805876742305252e-08  4.2540412445767727e-07  7.3264649930907522e-07  -1.2983888691830017e-07  1.3933825472736482e-07  1.0891760671748595e-07  7.1261905028656028e-07  1.0942509058575433e-06  1.2353628848454391e-07  8.3450884208301992e-09  2.7170144242544497e-08  4.7441763318735146e-08  4.2296661086584230e-08  4.5992446671811294e-08  2.4044880002272685e-07  1.4915829762608727e-07  -1.2241532762934296e-07  -4.3372355703748548e-09  -2.1934037156925304e-07  -3.3521798056008739e-08  3.6101629673201858e-07  -1.5487433796367152e-07  -4.3291713314325219e-09  -1.6820173008362286e-08  3.1878665017952519e-08  2.8607962666642487e-07  -2.8660261993014143e-08  1.6263014267224921e-07  -6.6897677140961186e-08  -3.3430119509083494e-08  -1.1830235130118707e-07  1.8235920496276041e-08  2.4859320035978142e-07  -1.1154788599439223e-07  -1.0749944109843870e-07  -1.1526962898780771e-07  -2.0266432824999915e-07  2.0990371099245220e-07  4.3947420653488081e-08  3.0180130835851475e-08  7.7624973150216108e-08  1.2395594618787621e-07  9.0748014059544177e-08  1.4149309880163116e-08  2.3705464732923155e-08  1.2131648113595913e-07  1.0637219268446987e-07  -2.5957123614830845e-09  1.4774294425887784e-07  1.8031614924064391e-07  7.9278918500366832e-09  1.0938242612400135e-07  9.3899611677770438e-08  2.0126718003944240e-07  1.3073946225258761e-07  -3.3736295774116609e-08  3.9203950823451757e-08  -3.2118389638842921e-08  -6.3035194259492511e-08  -3.2651478084363217e-08  -7.2154296434607312e-09  1.3851917072651597e-07  4.8207330990729409e-08  3.5611667961803964e-08  6.6806912699964545e-08  1.0098028931560664e-07  5.9247600219673833e-08  -4.5147498675510569e-08  1.2055506327310462e-07  1.2006041408090951e-08  -6.0738328841194213e-08  2.7906431741702266e-08  5.5995683042417870e-08  9.6357399279967734e-08  1.0411626306964149e-06  2.8447309121253025e-07  1.6733746871817553e-07  6.0607354506744783e-07  1.5812936319861950e-07  6.7209051521410046e-08  2.9690603201280889e-08  1.8551165077121011e-06  -1.0425124593492326e-07  -1.3312155346025165e-08  4.7076857706515849e-08  1.2018635659334090e-07  2.1301020686202747e-07  -3.2723902821741338e-07  -3.5443278660225109e-07  -2.6771930066625498e-08  -1.4855583988167063e-07  8.5357456233997260e-08  3.4560892433718475e-07  -3.8563106838564749e-08  -3.8525507236850931e-09  -2.0739822031955643e-08  3.1102249147779866e-08  7.1191597958134884e-08  2.0853573908361993e-08  2.0347087680239705e-07  3.6268946092934393e-07  -2.1044939977718476e-08  3.8319500027313578e-08  -2.4510937514337772e-08  2.5013595836990362e-07  4.2694755947425569e-07  -5.3182310198139104e-08  -2.4787143717818893e-08  1.5030120920307166e-07  3.1258378208576544e-07  1.6858875622889804e-07  1.4071029156363427e-07  1.7737160628926322e-07  1.0702993385847595e-07  6.1965638240061213e-09  -5.0591317544018317e-08  2.7854159950776468e-07  1.2342851307277243e-07  1.1758230235468714e-07  -1.7707394471524383e-08  9.2561567525775449e-08  5.5008544430233981e-08  7.8283297385478082e-08  1.5729829901249340e-07  3.8451213990535527e-07  -3.2438901901168736e-07  2.0369632120214063e-07  1.2955065632473754e-09  -1.9418081800694245e-08  2.0933706676975865e-07  1.8641628847109673e-07  -1.6531684443095082e-08  -1.1629177393462627e-07  -5.9042074807313412e-08  3.6995715072403894e-08  9.6241609232059956e-08  2.1795567876538354e-07  4.1881404723928129e-07  4.7864394350900255e-07  -5.1743567088632549e-08  1.3219063541005415e-07  -1.2685896848268381e-08  -2.9055195862837355e-08  -1.8705168488706282e-08  9.6969356182069819e-08  3.4043261162146445e-07  1.6447307743257560e-07  2.6080671643765606e-07  -1.7158296051347616e-08  6.8680251594962719e-08  -6.0052677962210510e-08  6.5759982259023617e-08  -5.9620134058223877e-08  -2.5027029785026783e-06  -8.3260838810280480e-08  1.1423370014430892e-07  -4.9164683136011765e-09  1.0026821911890258e-07  -2.8379243141234198e-08  -2.0854577858207107e-07  1.1156326877805655e-07  6.1765570149057854e-08  -7.0827402842525480e-08  -1.9882789200825586e-07  3.0887988442663959e-07  2.3317606667021106e-07  1.8169689716688708e-07  -6.8254863268891659e-08  5.2844251045157263e-08  1.6299460126107746e-07  -4.6918310302553105e-08  5.5143906697996134e-08  -1.9974219613111616e-07  2.5185287798124692e-10  1.3523611767059073e-07  1.9566369930945215e-07  -4.1404586086261047e-08  4.3520891245936147e-08  7.0698486699330695e-08  -1.6925115337959298e-08  -4.7406464758956549e-09  -3.4393346928624561e-08  4.6178088925289256e-08  -2.1290332263033106e-08  4.0378787133054201e-07  8.8643487240441553e-08  -1.1439546310009052e-07  -6.1406684917121278e-08  -2.6513927159843060e-08  5.4400905147432495e-08  -3.0652300506602979e-08  -1.0667493393972101e-07  1.4839699991980649e-06  1.1775683713066803e-07  1.8670551577529272e-07  1.0178085451750029e-07  2.7004897871528117e-08  -4.2546250197050624e-08  1.6838537903100930e-07  -4.4746751861463457e-08  1.0820382395734185e-08  2.1579058874918443e-08  -2.6419424057113906e-08  2.6299999911779875e-08  5.2185401407437471e-08  2.4508201398094829e-07  4.8092350766031190e-08  -2.6398251527302666e-08  5.1124764537969869e-08  1.0790595501744894e-07  9.6091932839067492e-08  -2.9427564112331236e-07  -2.3798445746946728e-07  1.3123981310152133e-07  -6.2538525067317969e-08  -5.5889000988753621e-08  6.0759990989206606e-08  -9.7211875571354144e-08  4.3151057594393680e-08  -4.7180608105092342e-08  5.2207765549345542e-08  2.5626538167376519e-07  -1.1900366351671523e-08  -1.7723240526130413e-07  -7.1395107511896741e-08  7.0790149366276585e-07  2.8258089644086122e-07  4.0799182347177403e-08  -7.2401445403942800e-08  -6.8165658424846362e-08  4.5009198473550918e-09  -5.2570954552430142e-09  1.0087199584608374e-07  -2.0342916732548656e-07  1.6955077509360746e-09  -3.3368751006974915e-08  -7.9170732902544663e-08  -1.5070941345882046e-07  5.5938564989233284e-08  -3.7932860528039070e-08  4.3815178825180129e-08  4.2421266386996210e-08  2.8372159177620130e-07  4.4239855822172478e-08  1.2888982179455684e-07  -1.3238684911750275e-07  1.3404972534512780e-07  3.1671439546668980e-08  1.8380049485175509e-07  8.3507219066815287e-09  2.8059855939840631e-07  -4.2642375064039856e-08  -7.5045213497219355e-09  3.1281444546054649e-08  -5.7376563339399135e-08  3.7342202608653831e-08  -2.2173292546198960e-09  -2.0123141338883770e-08  2.1074034381287838e-07  2.0071550334919037e-07  2.2435809098428350e-07  5.7664751852966913e-08  -1.0355681500604096e-07  1.3355616428327582e-07  5.3465652674714310e-08  -2.6606137423311827e-08  3.1478369406949294e-07  6.2619509734343590e-10  3.8773222257836017e-09  3.3177825759670202e-08  2.4233997919224743e-07  -4.8375150119940556e-08  2.1840788311269231e-07  5.1080847691342517e-07  4.1594814936546536e-07  -1.9204454011739408e-07  7.6358770145948358e-08  -3.9708120199829676e-08  -4.9513899302719325e-08  -8.9023803221270804e-08  -8.9920880287907256e-08  1.0484160936189499e-07  3.7304359841082812e-07  1.7680846910501068e-08  3.8263594050532233e-08  -2.5615842015036345e-08  -6.2583002404453381e-08  -1.5320724401956679e-07  -1.0857282427278333e-07  2.1842150191862903e-07  1.6886060162288815e-07  -2.8992925854566757e-09  3.6523248564688598e-08  2.7173240021568180e-08  3.2975123869355229e-08  1.1438373751893281e-06  -3.1292250531573996e-08  2.2229754415498664e-08  1.1367292138471058e-06  2.4438348388919211e-07  6.7800163287727028e-08  -1.0782372694197609e-07  1.1945071345920120e-07  8.6279691857585978e-08  2.3738142280456366e-07  3.1230392224010329e-07  -4.2761160613903175e-08  -9.4751564801534566e-08  8.7522389803216981e-08  4.1242201119012299e-08  -1.4612304959598906e-08  4.1559727272327040e-08  -3.1179004301634420e-08  2.3608141923583673e-07  7.2696956486595038e-07  -3.6526778777851586e-08  -3.7585676839555485e-08  1.7269063533269050e-07  1.1351202937077931e-08  3.8978620588000299e-09  1.4172548794457501e-07  -1.3406121012299937e-07  -8.2210571223537235e-08  -6.7600189787699593e-08  3.8749823128896834e-07  -2.3690030244698690e-07  5.0032333851144635e-08  -7.4178565854643779e-08  3.4448855295643738e-08  -7.9415157296034124e-08  8.9057025605211031e-10  -5.4822439971965308e-08  9.2152729916455451e-08  1.4387090138854763e-07  1.6955766395272020e-07  -5.8692059790975807e-08  6.7181768813844586e-08  -2.7376687161339514e-08  -1.9461646216424944e-07  7.3838640923556651e-08  -2.6608583157574983e-07  -2.9711062079218889e-08  -4.3850446540596639e-08  -1.7665292453295166e-09  -8.4894397677838748e-09  -1.5166110754321040e-07  7.5682410023650570e-08  -7.3718021584952462e-09  1.4622136573445567e-07  1.8763978091123349e-08  -1.4648524417657491e-07  -2.7178898212402196e-08  -8.5395178921678495e-09  -1.0635058242581540e-07  3.7475525123779576e-06  5.8644277070601852e-07  4.8666082145281305e-08  5.1751025091372848e-08  -4.4346064563457552e-08  -4.0060215206224394e-08  3.2224366474070400e-08  1.6990139817511678e-07  5.5782346184159389e-08  1.6468638806558428e-08  -4.4734932076965232e-07  1.2605195733147775e-08  4.4224932879917677e-08  2.4692300016160496e-07  -7.5289451053927942e-08  8.5165600319766086e-09  1.3591889248961280e-07  3.3662314456062776e-08  -2.0143730238971061e-07  2.9990833811698620e-08  -2.2857284904762797e-09  3.4392333558896537e-08  -3.4179219434317604e-08  -6.1129820498168148e-08  -4.8077815438742214e-08  7.3543495229709667e-09  -1.3541142696574486e-07  -4.9885621584006006e-08  6.4658729903486733e-07  -2.1612065067686343e-08  5.7835552022329031e-08  3.3470475093833764e-09  2.0243845119661363e-08  -2.0561082602573463e-08  -3.6163291484716612e-07  -4.5006922835591314e-08  1.3179000447105496e-07  -5.0107846416149522e-08  1.1246152941634348e-07  -5.6657216595360809e-08  1.0698716317505707e-07  -3.9586248422667020e-08  2.8879288395892578e-08  2.9148762124855094e-08  5.3611264147084432e-09  2.5946251811384950e-08  -1.4389476138789015e-08  5.9196683101264341e-07  4.4948052450150224e-08  -8.9214427948056947e-08  7.5669755419394070e-08  7.8543292456183270e-08  -1.4945788614949687e-07  -9.5681454375658147e-08  3.2973467795085812e-07  1.1068733311572394e-07  -3.8958775910036101e-08  6.8012645170447842e-08  6.0496957503031631e-08  1.9765651817425184e-07  -2.8047920986202484e-08  8.5935130613422018e-08  3.7409335697961900e-07  -7.2460034700247874e-08  -3.0514954558006999e-08  -3.5650616339037215e-08  9.0208869863087555e-08  3.4373516142726003e-08  1.2085305225081665e-07  2.4960491605840160e-07  2.2096161466725854e-08  5.9634101003309661e-08  1.8395524277027888e-07  -1.3611695086928512e-07  -1.0030101057325553e-07  -1.1929351609447761e-08  1.3557972404463843e-07  -9.6838384274469605e-08  -2.2288504090565361e-08  -1.6506266593204818e-08  7.8162798094609006e-08  2.8130916030510888e-07  6.62161734964