<?xml version="1.0"?>
<VTKFile type="UnstructuredGrid"  version="0.1"  >
<UnstructuredGrid>
<Piece  NumberOfPoints="2954" NumberOfCells="5142">
<Points>
<DataArray  type="Float64"  NumberOfComponents="3"  format="ascii">-20 2.5 0  -20 0 0  -1 0 0  -0.9996988186962042 0.02454122852291233 0  -0.9987954562051724 0.04906767432741797 0  -0.9972904566786902 0.07356456359966773 0  -0.9951847266721968 0.09801714032956083 0  -0.99247953459871 0.1224106751992163 0  -0.989176509964781 0.1467304744553618 0  -0.9852776423889412 0.1709618887603012 0  -0.9807852804032304 0.1950903220161286 0  -0.9757021300385285 0.21910124015687 0  -0.970031253194544 0.2429801799032641 0  -0.9637760657954398 0.2667127574748985 0  -0.9569403357322088 0.2902846772544624 0  -0.9495281805930367 0.3136817403988914 0  -0.9415440651830207 0.3368898533922203 0  -0.9329927988347388 0.3598950365349883 0  -0.9238795325112867 0.3826834323650899 0  -0.9142097557035307 0.4052413140049899 0  -0.9039892931234433 0.427555093430282 0  -0.8932243011955152 0.4496113296546069 0  -0.8819212643483549 0.4713967368259979 0  -0.8700869911087113 0.4928981922297841 0  -0.857728610000272 0.5141027441932218 0  -0.8448535652497071 0.5349976198870972 0  -0.8314696123025453 0.5555702330196022 0  -0.8175848131515836 0.5758081914178454 0  -0.8032075314806448 0.5956993044924335 0  -0.7883464276266062 0.6152315905806269 0  -0.773010453362737 0.6343932841636455 0  -0.7572088465064846 0.6531728429537766 0  -0.7409511253549589 0.6715589548470186 0  -0.7242470829514668 0.6895405447370671 0  -0.7071067811865475 0.7071067811865476 0  -0.6895405447370669 0.7242470829514669 0  -0.6715589548470184 0.740951125354959 0  -0.6531728429537765 0.7572088465064847 0  -0.6343932841636454 0.7730104533627371 0  -0.6152315905806267 0.7883464276266063 0  -0.5956993044924334 0.8032075314806449 0  -0.5758081914178453 0.8175848131515837 0  -0.555570233019602 0.8314696123025455 0  -0.534997619887097 0.8448535652497072 0  -0.5141027441932217 0.8577286100002721 0  -0.492898192229784 0.8700869911087115 0  -0.4713967368259977 0.881921264348355 0  -0.4496113296546067 0.8932243011955152 0  -0.4275550934302819 0.9039892931234434 0  -0.4052413140049897 0.9142097557035307 0  -0.3826834323650897 0.9238795325112867 0  -0.3598950365349882 0.9329927988347388 0  -0.3368898533922199 0.9415440651830208 0  -0.3136817403988914 0.9495281805930367 0  -0.2902846772544622 0.9569403357322089 0  -0.2667127574748983 0.9637760657954398 0  -0.2429801799032639 0.970031253194544 0  -0.2191012401568697 0.9757021300385286 0  -0.1950903220161282 0.9807852804032304 0  -0.1709618887603012 0.9852776423889412 0  -0.1467304744553616 0.989176509964781 0  -0.1224106751992162 0.99247953459871 0  -0.09801714032956065 0.9951847266721969 0  -0.07356456359966733 0.9972904566786902 0  -0.04906767432741801 0.9987954562051724 0  -0.02454122852291214 0.9996988186962042 0  6.123233995736766e-17 1 0  0.02454122852291226 0.9996988186962042 0  0.04906767432741813 0.9987954562051724 0  0.07356456359966745 0.9972904566786902 0  0.09801714032956077 0.9951847266721968 0  0.1224106751992163 0.99247953459871 0  0.1467304744553617 0.989176509964781 0  0.1709618887603014 0.9852776423889412 0  0.1950903220161283 0.9807852804032304 0  0.2191012401568698 0.9757021300385286 0  0.242980179903264 0.970031253194544 0  0.2667127574748984 0.9637760657954398 0  0.2902846772544623 0.9569403357322089 0  0.3136817403988916 0.9495281805930367 0  0.3368898533922201 0.9415440651830208 0  0.3598950365349883 0.9329927988347388 0  0.3826834323650898 0.9238795325112867 0  0.4052413140049899 0.9142097557035307 0  0.4275550934302822 0.9039892931234433 0  0.4496113296546066 0.8932243011955153 0  0.4713967368259978 0.8819212643483549 0  0.4928981922297841 0.8700869911087113 0  0.5141027441932217 0.8577286100002721 0  0.5349976198870973 0.844853565249707 0  0.5555702330196023 0.8314696123025452 0  0.5758081914178453 0.8175848131515837 0  0.5956993044924335 0.8032075314806448 0  0.6152315905806268 0.7883464276266062 0  0.6343932841636455 0.773010453362737 0  0.6531728429537768 0.7572088465064845 0  0.6715589548470183 0.7409511253549591 0  0.6895405447370669 0.7242470829514669 0  0.7071067811865476 0.7071067811865475 0  0.724247082951467 0.6895405447370668 0  0.7409511253549591 0.6715589548470183 0  0.7572088465064846 0.6531728429537768 0  0.773010453362737 0.6343932841636455 0  0.7883464276266063 0.6152315905806268 0  0.8032075314806449 0.5956993044924334 0  0.8175848131515837 0.5758081914178453 0  0.8314696123025452 0.5555702330196022 0  0.8448535652497071 0.5349976198870972 0  0.8577286100002721 0.5141027441932217 0  0.8700869911087115 0.492898192229784 0  0.881921264348355 0.4713967368259976 0  0.8932243011955153 0.4496113296546065 0  0.9039892931234433 0.4275550934302821 0  0.9142097557035307 0.4052413140049899 0  0.9238795325112867 0.3826834323650898 0  0.932992798834739 0.3598950365349881 0  0.9415440651830208 0.3368898533922201 0  0.9495281805930367 0.3136817403988915 0  0.9569403357322088 0.2902846772544623 0  0.9637760657954398 0.2667127574748984 0  0.970031253194544 0.2429801799032639 0  0.9757021300385286 0.2191012401568698 0  0.9807852804032304 0.1950903220161282 0  0.9852776423889412 0.1709618887603012 0  0.989176509964781 0.1467304744553617 0  0.99247953459871 0.1224106751992162 0  0.9951847266721969 0.0980171403295606 0  0.9972904566786902 0.07356456359966743 0  0.9987954562051724 0.04906767432741801 0  0.9996988186962042 0.02454122852291229 0  1 0 0  20 0 0  20 2.5 0  0 2.5 0  -10 2.5 0  10 2.5 0  -10.5 0 0  -5 2.5 0  10.5 0 0  5 2.5 0  -5.75 0 0  5.75 0 0  -15.25 0 0  -15 2.5 0  15.25 0 0  15 2.5 0  -17.625 0 0  -17.5 2.5 0  17.5 2.5 0  17.625 0 0  12.5 2.5 0  12.875 0 0  -12.5 2.5 0  -12.875 0 0  -2.5 2.5 0  2.5 2.5 0  -8.125 0 0  -7.5 2.5 0  8.125 0 0  7.5 2.5 0  -3.375 0 0  3.375 0 0  -18.75 2.5 0  20 1.25 0  16.4375 1.19375 0  -16.25 2.5 0  13.75 2.5 0  -14.0625 0 0  -11.6875 0 0  11.6875 0 0  8.75 2.5 0  -8.75 2.5 0  6.9375 0 0  6.25 2.5 0  -6.25 2.5 0  -9.3125 0 0  -6.9375 0 0  9.3125 0 0  11.25 2.5 0  -11.25 2.5 0  3.75 2.5 0  4.5625 0 0  -4.5625 0 0  -3.75 2.5 0  -13.75 2.5 0  14.0625 0 0  -16.4375 0 0  -20 1.25 0  -18.8125 0 0  18.75 2.5 0  -18.21875 1.2359375 0  18.125 1.278125 0  -15.84375 1.2125 0  -14.375 1.30859375 0  14.65625 1.203125 0  2.1875 0 0  -2.1875 0 0  13.125 1.315625 0  3.125 1.315625 0  -3.125 1.315625 0  -12.28125 1.1890625 0  -5.15625 1.184375 0  11.09375 1.184375 0  5.625 1.325 0  -10.97262068800044 1.220713793599868 0  9.375 1.32734375 0  -6.875 1.32734375 0  -9.67626828410207 1.24449497187193 0  8.061334925608099 1.312208731402025 0  -8.188665074391901 1.312208731402025 0  -1.25 2.5 0  1.25 2.5 0  4.37465139623265 1.41327350462657 0  16.25 2.5 0  6.84375467392576 1.430449641528851 0  -1.846573640185365 1.334702047669377 0  1.846573640185365 1.334702047669377 0  -17.02955351149946 1.396129584721571 0  16.4375 0 0  18.8125 0 0  -13.31314667860176 1.511193493282891 0  -4.122005747945582 0.961844908681634 0  12.12799425205442 0.961844908681634 0  15.54930641305724 1.660405980876393 0  19.0578783583929 0.9559530595267438 0  8.71875 0.6864560603786576 0  -7.53125 0.6864560603786576 0  -0.6257799091428727 1.819008129832856 0  0.6257799091428734 1.819008129832855 0  6.291331569065717 0.7194652423646902 0  -19.11204717950418 0.9044926794710327 0  -4.488713231834613 1.772186102355655 0  11.76128676816539 1.772186102355655 0  -19.28185607205105 1.781856072051052 0  19.30868080343342 1.808680803433421 0  9.90625 0.6371857066656857 0  -6.34375 0.6371857066656857 0  3.796921710049233 0.7617406159238448 0  7.392020585015773 0.7480839107774819 0  -8.910372062800235 0.7929553447587234 0  10.2506781820361 1.451853913138859 0  -5.999321817963904 1.451853913138859 0  4.957643119381741 0.7716423099297361 0  17.29984375 0.8640625 0  15.41193625859067 0.8279888354083842 0  -13.72251704931534 0.7728002662082776 0  16.875 2.5 0  17.12178336313261 1.690954734835967 0  -11.64001625260176 1.74572103154608 0  2.477726735235857 0.7850262278604345 0  13.46875 0 0  13.765625 0.7802887470308788 0  -2.78125 0 0  -2.477726735235857 0.7850262278604346 0  -10.33383379274331 1.744431431923121 0  13.91957519050334 1.653419259628842 0  -15.08147780274903 0.8341506893754731 0  -15.14066649024666 1.671962869821843 0  -8.950686484882164 1.678622661163363 0  -17.55392917606836 0.794731598412167 0  -16.80247533599675 0.6688259240674158 0  -12.94289066923278 0.7766744225472476 0  -9.90625 0 0  -10.31601468672093 0.7730817089126454 0  -18.21875 0 0  -12.28125 0 0  -17.68515668569534 1.768907656575843 0  18.21875 0 0  10.85059123027421 1.880344717307101 0  -5.399408769725794 1.880344717307101 0  -3.738137326223278 1.749164834446819 0  -3.125 2.5 0  12.46235897590077 1.601301060091387 0  -11.09375 0 0  -11.61661448001209 0.7781698802173554 0  -15.625 2.5 0  -1.764022608759088 0.6027229563180789 0  1.59375 0 0  -8.125 2.5 0  8.125 2.5 0  8.713468311289519 1.727645658498745 0  9.375 2.5 0  -7.536531688710481 1.727645658498745 0  -6.875 2.5 0  14.375 2.5 0  17.78381794101733 1.874391370085592 0  18.59891476281433 1.80649740393129 0  -18.58835555265984 1.824268641341969 0  1.806126122135773 0.6510673837470153 0  -16.875 2.5 0  -16.36681393636619 1.755298393865037 0  -16.13072438662071 0.6014017614895231 0  -13.92460230791385 1.83195710210235 0  -14.40198779087891 0.6105385965811564 0  20 0.625 0  19.40625 0 0  14.6875 1.888836596385542 0  14.65625 0 0  12.78248197181444 0.6991460920542635 0  -3.467518028185561 0.6991460920542635 0  13.125 2.5 0  2.491957142932539 1.738660596534321 0  3.125 2.5 0  1.875 2.5 0  3.718973573227002 1.75927763286174 0  -2.491957142932539 1.738660596534321 0  -1.875 2.5 0  -9.375 2.5 0  6.2001972846108 1.772767401802766 0  5.625 2.5 0  5.027483518098582 1.760895488350309 0  5.625981449127788 0.6566963631252629 0  -12.30101114679273 1.859484693920165 0  9.742489932362783 1.884363450023167 0  -6.507510067637216 1.884363450023166 0  1.13492303295015 1.283502262067074
[...]
<PointData  Scalars="f_5578"> 
<DataArray  type="Float64"  Name="f_5578"  format="ascii">1.0000017135093859e+00  9.9999903144579771e-01  9.9991314853696478e-01  9.9995244615707302e-01  9.9999031048418097e-01  1.0000009610058849e+00  9.9999884194138400e-01  9.9998209768259616e-01  9.9998088011605724e-01  9.9999467721708091e-01  1.0000018487470665e+00  9.9999970834537211e-01  9.9999912966037507e-01  9.9999878883945315e-01  9.9998851072160033e-01  9.9999838906006322e-01  9.9999783718770863e-01  9.9999666099007511e-01  9.9998383165073956e-01  9.9999921609808895e-01  9.9999330055946012e-01  9.9999373519282442e-01  9.9999563077774201e-01  9.9999383055371494e-01  9.9999173884815862e-01  9.9998766402520156e-01  9.9999573025404032e-01  9.9998853804803056e-01  9.9999376766642811e-01  9.9998499859416645e-01  9.9999011520652648e-01  9.9999074193394233e-01  9.9999202700751111e-01  9.9999760628788181e-01  9.9999254699876794e-01  9.9999229943969581e-01  9.9999546743630807e-01  9.9999127039409474e-01  9.9999555805521334e-01  9.9999182496818584e-01  9.9999680215543962e-01  9.9999354192602219e-01  9.9999565042651806e-01  9.9999454004299215e-01  9.9999461105395870e-01  9.9999567411633017e-01  1.0000000874092607e+00  9.9999660700705795e-01  9.9999574024175042e-01  9.9999388498069941e-01  9.9999696494157597e-01  9.9999551897554129e-01  9.9999499609872444e-01  9.9999656415119942e-01  9.9999770788027320e-01  9.9999748871370797e-01  9.9999802901299550e-01  9.9999831586664256e-01  9.9999819065635320e-01  9.9999816462512170e-01  9.9999835487116984e-01  9.9999862082154689e-01  9.9999933053436751e-01  9.9999805475119374e-01  9.9999964687453313e-01  9.9999983655040781e-01  1.0000003011284551e+00  9.9999990044680032e-01  9.9999947562911140e-01  1.0000013100038219e+00  1.0000006799720798e+00  1.0000010704611419e+00  1.0000005558999119e+00  1.0000014729274602e+00  1.0000012304467389e+00  1.0000009451648439e+00  1.0000007868732534e+00  1.0000011056771849e+00  9.9999925381357835e-01  1.0000007520217717e+00  1.0000013912929304e+00  1.0000023302152490e+00  1.0000029125137562e+00  1.0000007122004522e+00  1.0000022298361610e+00  1.0000024200611337e+00  1.0000008744320943e+00  1.0000041755219298e+00  1.0000027245816183e+00  1.0000016551819544e+00  1.0000020469600130e+00  1.0000006059096482e+00  1.0000026483056730e+00  1.0000006773973429e+00  9.9999426157471616e-01  9.9999714262494899e-01  1.0000015543771594e+00  1.0000027640544134e+00  9.9999846163116213e-01  1.0000006856001724e+00  9.9999369781798220e-01  9.9999953702185429e-01  9.9999992244902047e-01  1.0000018229469916e+00  9.9999502124145412e-01  1.0000010896895639e+00  9.9999595865782076e-01  9.9999938637121366e-01  9.9999299014302123e-01  9.9999766823182190e-01  1.0000004060197412e+00  9.9998546061938742e-01  9.9998910388973317e-01  9.9998571632789190e-01  9.9999422350504763e-01  9.9999214109750911e-01  9.9999877042134044e-01  9.9999903446891203e-01  9.9999603777175139e-01  9.9999587643027965e-01  9.9999717521430553e-01  9.9998833344901694e-01  9.9999564352072201e-01  9.9999918620842998e-01  1.0000001883575753e+00  9.9999877324453601e-01  9.9999609931520850e-01  9.9999792855036385e-01  9.9999755466376472e-01  9.9999630576975296e-01  9.9998986360952979e-01  9.9999982971365331e-01  9.9999848826871929e-01  9.9999946308827836e-01  9.9999977064417378e-01  9.9999896422551360e-01  9.9999787274643148e-01  1.0000002464440305e+00  1.0000037298626943e+00  1.0000013274308017e+00  1.0000037983492049e+00  9.9999679560074872e-01  9.9999726554620716e-01  9.9999985179405793e-01  1.0000001145513586e+00  9.9999950973867480e-01  1.0000048372451373e+00  9.9999642602467742e-01  9.9999695168385039e-01  9.9999529443576529e-01  9.9999958403238598e-01  9.9999678384349777e-01  9.9999817813068570e-01  1.0000001264452365e+00  9.9999995398940911e-01  1.0000024756958925e+00  9.9999621155593599e-01  1.0000043982034854e+00  9.9999502605046675e-01  9.9999964610911540e-01  1.0000002874604668e+00  1.0000000088445893e+00  1.0000002762579949e+00  9.9999318007236626e-01  1.0000002959239072e+00  9.9999886085437684e-01  1.0000007685090966e+00  9.9999880928219720e-01  1.0000000675910179e+00  9.9999971596591208e-01  9.9999733367426380e-01  9.9999963962523319e-01  1.0000011730164393e+00  1.0000012793535582e+00  9.9999933400615693e-01  1.0000007323238655e+00  9.9999795925501400e-01  9.9999872214081076e-01  1.0000000935857420e+00  9.9999832412380107e-01  9.9999814904166984e-01  9.9999871019044073e-01  9.9999909021640976e-01  9.9999996351434040e-01  9.9999833869640642e-01  1.0000001720010281e+00  1.0000010520900933e+00  9.9999897357348411e-01  9.9999944477488334e-01  9.9999934675092095e-01  9.9999773551762483e-01  1.0000007147222822e+00  9.9999967041589344e-01  9.9999693005690315e-01  9.9999961612632293e-01  9.9999818689406383e-01  9.9999825976536716e-01  9.9999957066264866e-01  1.0000000681187626e+00  9.9999904840415610e-01  9.9999914259592781e-01  9.9999810287027824e-01  9.9999924211922731e-01  9.9999987232129828e-01  9.9999942456536672e-01  9.9999940560331935e-01  9.9999954027175519e-01  9.9999940557533651e-01  9.9999928498016977e-01  9.9999910029971728e-01  1.0000003339695704e+00  9.9999919061951692e-01  9.9999916719786730e-01  9.9999961150137162e-01  9.9999994431620276e-01  9.9999940188610692e-01  9.9999944217173087e-01  9.9999976214699116e-01  1.0000030874519841e+00  9.9999979577484022e-01  9.9999754239304162e-01  9.9999919260035164e-01  9.9999874734190008e-01  9.9999936092685604e-01  9.9999923068478092e-01  9.9999743820652254e-01  9.9999864359125934e-01  9.9999944988002831e-01  9.9999953060423008e-01  1.0000013949567041e+00  9.9999985110099621e-01  9.9999932004349079e-01  9.9999743173535149e-01  9.9999968706801090e-01  9.9999820286850372e-01  1.0000001700199914e+00  9.9999986880676595e-01  9.9999745324330258e-01  1.0000004097649777e+00  9.9999842012541051e-01  9.9999868588136709e-01  9.9999968867722122e-01  1.0000008086389709e+00  9.9999941879727272e-01  1.0000003146603760e+00  9.9999723938194529e-01  9.9999725749271251e-01  9.9999656711697771e-01  9.9999976535895485e-01  9.9999975431498067e-01  9.9999952261294334e-01  9.9999971315517167e-01  9.9999692533970008e-01  9.9999748249644627e-01  9.9999924767181625e-01  1.0000000516994634e+00  9.9999906752543932e-01  9.9999952002158821e-01  9.9999966700719345e-01  9.9999490354341170e-01  1.0000009724449841e+00  9.9999798806967199e-01  9.9999851367938475e-01  9.9999821180113602e-01  9.9998882185699434e-01  9.9999888066569165e-01  9.9999875165963259e-01  9.9999478229928151e-01  9.9999841393180300e-01  9.9999995357231120e-01  9.9999945989043038e-01  9.9999593531993070e-01  9.9999925210861906e-01  9.9999963226249644e-01  9.9999955796374385e-01  9.9999970060836951e-01  9.9999966202291146e-01  9.9999862516394533e-01  9.9999985828622406e-01  1.0000094139110365e+00  1.0000023479168909e+00  9.9999884624069302e-01  9.9999944691576892e-01  1.0000042144914416e+00  1.0000002818256324e+00  1.0000019728339427e+00  9.9999791284900053e-01  9.9999999699437203e-01  1.0000000902733239e+00  9.9999782494158262e-01  1.0000002449927314e+00  9.9999909442364021e-01  9.9999706616393880e-01  9.9999496093675422e-01  9.9999562631004046e-01  9.9999895096079361e-01  9.9999901371912880e-01  1.0000011463674479e+00  9.9999847743544690e-01  9.9999866965758855e-01  9.9999869059350555e-01  9.9999974681671522e-01  9.9997270083986256e-01  9.9999908076572896e-01  1.0000056952875023e+00  9.9999715258950383e-01  9.9999893704873488e-01  9.9999885284138179e-01  9.9999979179401710e-01  9.9999953623517046e-01  1.0000002033082060e+00  9.9999906412985407e-01  9.9999993774086571e-01  9.9999875707037733e-01  1.0000005621550925e+00  9.9999864697893914e-01  9.9999978944972590e-01  1.0000007881589017e+00  9.9999991593001547e-01  9.9999985940727898e-01  9.9999844333822840e-01  1.0000001334051916e+00  9.9999976957132652e-01  9.9999938319365045e-01  1.0000004921154135e+00  9.9999966126263984e-01  9.9999909142387544e-01  9.9999987682621150e-01  9.9999912315016315e-01  9.9999905058516436e-01  9.9999948145734596e-01  9.9999708893803163e-01  9.9999942321787327e-01  9.9999949176133385e-01  9.9999852578156001e-01  9.9999697534133436e-01  9.9999712128081863e-01  9.9999481856306249e-01  9.9999632327695609e-01  1.0000002382730435e+00  9.9999991124627774e-01  9.9999982330893422e-01  9.9999933825100806e-01  1.0000027783229224e+00  9.9999907817224609e-01  9.9999632283048356e-01  9.9999922964080146e-01  1.0000005014643787e+00  9.9999965630353327e-01  9.9999597863257028e-01  1.0000001260079223e+00  1.0000006682537304e+00  9.9999873930053673e-01  9.9999928150339989e-01  9.9999935650939420e-01  9.9999839421342851e-01  9.9999969713982972e-01  9.9999827942464914e-01  9.9999917559247864e-01  9.9999937601008360e-01  9.9999896475888461e-01  1.0000000189769729e+00  9.9998650994065197e-01  9.9998639749885121e-01  1.0000004233320468e+00  9.9999852613032869e-01  9.9999956269940948e-01  1.0000042568500762e+00  9.9999960794558074e-01  1.0000000864561363e+00  9.9999843360423846e-01  9.9999792442666235e-01  1.0000001650367607e+00  9.9999981007553174e-01  1.0000001103695078e+00  9.9999988744566182e-01  1.0000004459719820e+00  9.9999585571693428e-01  1.0000010584127914e+00  1.0000002079659576e+00  1.0000007811890836e+00  9.9999735032144588e-01  9.9999493800370964e-01  1.0000013518102426e+00  9.9999848868622510e-01  9.9999907247050457e-01  9.9999471944947027e-01  9.9999071993838928e-01  9.9999942503710781e-01  9.9999936475128881e-01  9.9999954720192841e-01  9.9999982669272103e-01  1.0000001388677464e+00  9.9999953618675397e-01  9.9999848254224954e-01  9.9999859335084273e-01  1.0000015612879449e+00  9.9999990974385433e-01  1.0000026226916177e+00  1.0000003080451585e+00  9.9999686909694430e-01  1.0000008335135475e+00  9.9999976152929626e-01  1.0000001751411343e+00  1.0000002044728211e+00  9.9999754645406669e-01  1.0000000223628609e+00  9.9999895388089266e-01  1.0000001095665179e+00  1.0000000064245422e+00  1.0000006427406449e+00  9.9999991375061015e-01  9.9999810123910238e-01  1.0000010614539454e+00  1.0000007007890506e+00  1.0000013319935170e+00  1.0000016267540852e+00  9.9999854483326256e-01  1.0000006489787003e+00  9.9999986516793482e-01  9.9999911979447376e-01  9.9999923407596980e-01  9.9999904595281419e-01  9.9999974228194732e-01  9.9999937799640748e-01  9.9999842699670327e-01  9.9999846576834683e-01  9.9999992392562898e-01  9.9999884534337291e-01  9.9999850214878094e-01  9.9999967723806948e-01  9.9999912858806816e-01  9.9999900040682244e-01  9.9999904075171564e-01  9.9999928715480801e-01  9.9999984256723162e-01  9.9999953415677156e-01  1.0000001465550068e+00  1.0000002587324439e+00  1.0000001800909226e+00  9.9999951739023740e-01  9.9999939637839763e-01  9.9999960319108328e-01  9.9999974351531762e-01  9.9999999979416609e-01  9.9999933663108020e-01  9.9999911594932533e-01  1.0000001430320524e+00  9.9999903905175780e-01  9.9999919134487558e-01  1.0000002249672051e+00  9.9999930099047729e-01  9.9999893141560980e-01  9.9999878203395753e-01  9.9999758447792197e-01  9.9999939027767748e-01  9.9999963452030671e-01  9.9999912388557233e-01  9.9999851193872380e-01  9.9999939044592456e-01  9.9999941612565157e-01  9.9998196973380504e-01  1.0000004475594755e+00  9.9999983688820948e-01  9.9999964389243901e-01  9.9999834271807864e-01  9.9999775104283339e-01  1.0000038023568849e+00  1.0000038791706394e+00  1.0000000608242192e+00  1.0000011454173339e+00  9.9999912288963633e-01  9.9999721009175113e-01  1.0000000340374917e+00  9.9999948566686181e-01  9.9999965707595695e-01  9.9999981175048647e-01  9.9999889570214573e-01  9.9999927092251240e-01  9.9999896461509175e-01  9.9999540414653620e-01  1.0000000710386181e+00  9.9999917357420343e-01  9.9999959123702375e-01  9.9999862639839088e-01  9.9999702718519201e-01  9.9999978641671017e-01  1.0000000754860778e+00  9.9999923624046461e-01  9.9999807828794240e-01  9.9999821088000762e-01  9.9999917049979392e-01  9.9999793152775907e-01  9.9999924059111611e-01  9.9999993131211451e-01  1.0000002931471681e+00  9.9999924616217717e-01  9.9999925446677396e-01  9.9999940181757685e-01  9.9999996187142903e-01  9.9999876609322047e-01  9.9999897260590442e-01  9.9999928382869041e-01  9.9999880566020383e-01  9.9999640012917002e-01  1.0000000571339724e+00  9.9999971195358728e-01  9.9999974690569404e-01  9.9999938230121710e-01  9.9999911420912702e-01  9.9999880393586060e-01  9.9999968574215259e-01  1.0000018123720240e+00  1.0000010351440998e+00  9.9999957811705331e-01  9.9999927542959377e-01  9.9999820990903687e-01  9.9999440012430862e-01  9.9999408064874629e-01  1.0000004245112279e+00  9.9999840546283614e-01  9.9999986560094178e-01  1.0000004991670373e+00  9.9999991245983977e-01  9.9999895941942596e-01  9.9999768462250149e-01  9.9999748981668846e-01  9.9999778010659468e-01  9.9999997846013744e-01  9.9999944573271171e-01  9.9999976551849346e-01  9.9999943803691527e-01  9.9999966721116007e-01  1.0000218023037379e+00  1.0000001038880713e+00  9.9999875210864519e-01  9.9999953162890065e-01  9.9999908422110240e-01  9.9999979407458839e-01  1.0000083163840838e+00  9.9999863248911136e-01  9.9999975121466067e-01  1.0000011651294238e+00  1.0000000535662696e+00  9.9999756933705941e-01  9.9999779609143624e-01  9.9999822642490910e-01  9.9999995186277713e-01  1.0000002114014930e+00  9.9999814353883543e-01  9.9999989252181098e-01  9.9999887074729499e-01  1.0000011360062719e+00  9.9999973071774284e-01  9.9999865581374603e-01  9.9999827683006071e-01  9.9999979264177152e-01  9.9999952904773759e-01  9.9999942923981466e-01  1.0000000393924007e+00  1.0000004938752007e+00  9.9999983666014303e-01  9.9999908707237528e-01  9.9999958963520919e-01  9.9999931338756853e-01  9.9999897371936386e-01  1.0000004496885870e+00  9.9999996239931133e-01  1.0000000853556514e+00  9.9999958269698686e-01  1.0000002164085628e+00  1.0000000950263319e+00  9.9998624170019990e-01  9.9999857079718668e-01  9.9999901958085580e-01  9.9999852425722435e-01  9.9999976680215219e-01  1.0000000328654322e+00  9.9999817613931408e-01  9.9999972158574080e-01  9.9999948987842147e-01  9.9999909378408802e-01  9.9999926495271252e-01  9.9999991072482375e-01  1.0000000992647857e+00  9.9999779924144627e-01  9.9999950026266649e-01  9.9999982355928785e-01  9.9999948837890962e-01  9.9999892709811999e-01  9.9999917443370556e-01  1.0000028969359736e+00  1.0000024083692705e+00  9.9999890027447469e-01  1.0000009940913441e+00  9.9999991866492255e-01  1.0000007963670212e+00  1.0000007965596052e+00  9.9999975418201914e-01  1.0000001509506091e+00  9.9999927125925048e-01  9.9999584174903811e-01  9.9999970751052447e-01  1.0000016811322276e+00  1.0000001458746728e+00  9.9999299455935042e-01  9.9999892834181958e-01  9.9999974179234075e-01  1.0000003330987677e+00  9.9999992937000459e-01  1.0000001217379280e+00  9.9999960474554417e-01  9.9999980113126286e-01  1.0000011959147508e+00  9.9999972044726970e-01  1.0000001988870832e+00  1.0000005906745613e+00  1.0000007810029905e+00  9.9999902735250212e-01  1.0000000992033615e+00  9.9999912652872325e-01  9.9999973388749419e-01  9.9999789773044834e-01  9.9999953724931867e-01  9.9999898702687617e-01  1.0000007805604980e+00  9.9999857561049510e-01  9.9999986500931348e-01  9.9999948814692308e-01  9.9999951720429148e-01  9.9999782592621322e-01  1.0000004829975107e+00  1.0000001267672771e+00  9.9999934376439747e-01  1.0000000220769001e+00  9.9999904900851466e-01  9.9999992446096519e-01  1.0000004139797132e+00  9.9999933363854232e-01  9.9999689042896867e-01  9.9999814563913603e-01  9.9999992446559371e-01  1.0000010211428887e+00  9.9999879992154839e-01  9.9999913796609285e-01  1.0000002975383855e+00  9.9999922286357323e-01  9.9999972915449475e-01  9.9999945454475192e-01  9.9999992904011969e-01  9.9999872358592401e-01  9.9999987968780002e-01  9.9999931835715761e-01  9.9999629983760330e-01  9.9999675386092868e-01  1.0000004370852869e+00  9.9999916876471961e-01  1.0000003298348394e+00  1.0000011357722534e+00  1.0000003472500447e+00  1.0000003457361304e+00  9.9999909775421625e-01  9.9999867314105273e-01  9.9999908287859762e-01  9.9999955426502318e-01  9.9999953667157659e-01  1.0000000740542627e+00  1.0000009272764507e+00  1.0000001533828788e+00  9.9999824686111827e-01  9.9999965836397409e-01  9.9999958683678369e-01  9.9999989803114209e-01  9.9999970660037918e-01  9.9999919919947611e-01  9.9999793160120554e-01  9.9999978975920945e-01  9.9999923406077496e-01  9.9999667499640810e-01  9.9999861704768267e-01  9.9999926869681588e-01  1.0000008442658952e+00  9.9999755379085731e-01  9.9999783773753470e-01  9.9999773157036165e-01  9.9999658730936669e-01  9.9999977822557085e-01  1.0000002685184000e+00  9.9999944047297717e-01  9.9999926228604663e-01  9.9999993702888512e-01  1.0000001599295407e+00  9.9999995662987740e-01  9.9999753479471531e-01  9.9999568811835959e-01  9.9999961771317847e-01  9.9999984932336583e-01  9.9999832052176540e-01  9.9999913025651621e-01  9.9999955265849327e-01  9.9999892137067148e-01  1.0000014177561298e+00  1.0000002500758658e+00  1.0000003353908968e+00  9.9999724525175704e-01  1.0000011908969146e+00  1.0000001185627314e+00  1.0000000897846826e+00  9.9999931438924716e-01  1.0000004144733123e+00  1.0000000354691605e+00  1.0000007450134305e+00  9.9999898242450347e-01  9.9999897381128566e-01  9.9999938729084825e-01  1.0000001609033216e+00  9.9999856609029192e-01  9.9999968276014584e-01  1.0000010391314982e+00  9.9999943248873857e-01  1.0000011906424680e+00  1.0000000358128933e+00  1.0000001717168248e+00  9.9999984949970888e-01  9.9999989893429508e-01  1.0000009119332398e+00  9.9999927220533891e-01  9.9999968987836951e-01  9.9999966597112877e-01  9.9999884254676752e-01  1.0000014782839335e+00  9.9999993094106643e-01  9.9999999142243889e-01  1.0000001120906783e+00  9.9999102079352375e-01  9.9999935893724679e-01  9.9999963879509346e-01  9.9999940929216491e-01  1.0000001479283929e+00  1.0000000345308424e+00  1.0000000088215069e+00  9.9999829437116938e-01  9.9999904860517830e-01  9.9999971968714518e-01  1.0000056017408985e+00  9.9999961685202099e-01  9.9999928256886927e-01  9.9999742516884027e-01  1.0000003404327786e+00  1.0000005782512404e+00  9.9999900227999283e-01  9.9999959107355996e-01  1.0000008307805766e+00  9.9999924911073335e-01  9.9999963909363487e-01  1.0000000265168500e+00  9.9999993202410564e-01  1.0000003033943270e+00  1.0000001661956064e+00  9.9999927537779798e-01  1.0000005327561086e+00  1.0000008830078884e+00  9.9999475129775739e-01  9.9999974172714123e-01  9.9999961502235934e-01  9.9999971818317046e-01  9.9999914881969298e-01  9.9999994414220861e-01  1.0000041864050777e+00  1.0000000587157498e+00  9.9999924365672421e-01  1.0000000124738688e+00  9.9999934867122608e-01  1.0000006565606976e+00  9.9999900069548475e-01  1.0000005571224906e+00  9.9999903202126306e-01  9.9999902953926145e-01  1.0000001067702293e+00  9.9999999400529138e-01  1.0000004870277310e+00  9.9999877957117578e-01  9.9999981103228730e-01  1.0000005944694039e+00  9.9999992687733696e-01  9.9999858909279649e-01  1.0000006514451745e+00  1.0000002059177375e+00  9.9999684132778044e-01  9.9999895474246803e-01  9.9999980993786841e-01  9.9999915821306551e-01  9.9999914080076380e-01  9.9999880262499563e-01  9.9999985166977678e-01  9.9999889957772425e-01  9.9999775146780390e-01  9.9999911970518485e-01  9.9999921844757345e-01  9.9999988062935841e-01  9.9999860927549367e-01  9.9999975801582131e-01  9.9999980876003547e-01  9.9999884031293562e-01  1.0000002312350973e+00  9.9999973705216716e-01  9.9999805239703432e-01  1.0000014277553719e+00  1.0000012941397791e+00  9.9999967570569226e-01  9.9999881198809148e-01  1.0000011073586175e+00  9.9999969379973652e-01  9.9999987881900643e-01  9.9999884474824596e-01  9.9999793621455901e-01  9.9999973897402528e-01  9.9999968506983383e-01  9.9999951304576917e-01  1.0000008222010512e+00  9.9999903935225243e-01  1.0000003411714369e+00  9.9999960422382062e-01  1.0000020542025381e+00  1.0000002388968761e+00  1.0000002673015393e+00  9.9999928580909569e-01  9.9999983900309586e-01  9.9999949347329942e-01  9.9999787566885