<?xml version="1.0"?>
<VTKFile type="UnstructuredGrid"  version="0.1"  >
<UnstructuredGrid>
<Piece  NumberOfPoints="2563" NumberOfCells="4278">
<Points>
<DataArray  type="Float64"  NumberOfComponents="3"  format="ascii">1.25 0 0  1.249623523370255 0.03067653565364036 0  1.248494320256466 0.06133459290927252 0  1.246613070848363 0.09195570449958429 0  1.243980908340246 0.1225214254119508 0  1.240599418248387 0.1530133439990203 0  1.236470637455976 0.1834130930692022 0  1.231597052986177 0.2137023609503765 0  1.225981600504038 0.2438629025201603 0  1.219627662548161 0.2738765501960873 0  1.21253906649318 0.3037252248790798 0  1.2047200822443 0.333390946843623 0  1.196175419665261 0.3628558465680779 0  1.186910225741296 0.3921021754986144 0  1.176930081478776 0.4211123167402751 0  1.166240998543424 0.4498687956687352 0  1.154849415639108 0.4783542904563622 0  1.142762194629413 0.5065516425062373 0  1.129986616404304 0.5344438667878526 0  1.116530376494394 0.5620141620682582 0  1.102401580435444 0.5892459210324971 0  1.087608738885889 0.61612274028723 0  1.07216076250034 0.642628430241527 0  1.056066956562134 0.6687470248588714 0  1.039337015378182 0.6944627912745027 0  1.02198101643948 0.7197602392723067 0  1.004009414350806 0.7446241306155417 0  0.9854330345332579 0.7690394882257835 0  0.9662630667034212 0.7929916052045569 0  0.9465110581331058 0.8164660536922209 0  0.9261889066936989 0.8394486935587729 0  0.9053088536893338 0.8619256809213336 0  0.8838834764831844 0.8838834764831843 0  0.8619256809213337 0.9053088536893337 0  0.8394486935587729 0.9261889066936989 0  0.8164660536922209 0.9465110581331055 0  0.7929916052045569 0.9662630667034212 0  0.7690394882257835 0.9854330345332578 0  0.7446241306155419 1.004009414350806 0  0.7197602392723067 1.02198101643948 0  0.6944627912745028 1.039337015378182 0  0.6687470248588716 1.056066956562134 0  0.642628430241527 1.07216076250034 0  0.6161227402872301 1.087608738885889 0  0.5892459210324973 1.102401580435444 0  0.5620141620682583 1.116530376494394 0  0.5344438667878527 1.129986616404304 0  0.5065516425062373 1.142762194629413 0  0.4783542904563623 1.154849415639108 0  0.4498687956687353 1.166240998543424 0  0.4211123167402751 1.176930081478776 0  0.3921021754986145 1.186910225741296 0  0.3628558465680779 1.196175419665261 0  0.333390946843623 1.2047200822443 0  0.30372522487908 1.21253906649318 0  0.2738765501960872 1.219627662548161 0  0.2438629025201604 1.225981600504038 0  0.2137023609503767 1.231597052986177 0  0.1834130930692022 1.236470637455976 0  0.1530133439990203 1.240599418248387 0  0.122521425411951 1.243980908340246 0  0.09195570449958432 1.246613070848363 0  0.06133459290927266 1.248494320256466 0  0.03067653565364033 1.249623523370255 0  7.654042494670958e-17 1.25 0  -0.03067653565364018 1.249623523370255 0  -0.06133459290927251 1.248494320256466 0  -0.09195570449958416 1.246613070848363 0  -0.1225214254119508 1.243980908340246 0  -0.1530133439990202 1.240599418248387 0  -0.1834130930692021 1.236470637455976 0  -0.2137023609503766 1.231597052986177 0  -0.2438629025201602 1.225981600504038 0  -0.2738765501960871 1.219627662548161 0  -0.3037252248790798 1.21253906649318 0  -0.3333909468436229 1.2047200822443 0  -0.3628558465680777 1.196175419665261 0  -0.3921021754986143 1.186910225741296 0  -0.4211123167402749 1.176930081478776 0  -0.4498687956687352 1.166240998543424 0  -0.4783542904563621 1.154849415639108 0  -0.5065516425062372 1.142762194629413 0  -0.5344438667878524 1.129986616404304 0  -0.5620141620682584 1.116530376494394 0  -0.5892459210324972 1.102401580435444 0  -0.61612274028723 1.087608738885889 0  -0.642628430241527 1.07216076250034 0  -0.6687470248588713 1.056066956562134 0  -0.6944627912745025 1.039337015378182 0  -0.7197602392723067 1.02198101643948 0  -0.7446241306155417 1.004009414350806 0  -0.7690394882257834 0.9854330345332579 0  -0.7929916052045567 0.9662630667034213 0  -0.8164660536922207 0.9465110581331059 0  -0.8394486935587731 0.9261889066936988 0  -0.8619256809213337 0.9053088536893337 0  -0.8838834764831843 0.8838834764831844 0  -0.9053088536893334 0.8619256809213338 0  -0.9261889066936986 0.8394486935587732 0  -0.9465110581331058 0.8164660536922208 0  -0.9662630667034212 0.7929916052045569 0  -0.9854330345332578 0.7690394882257836 0  -1.004009414350806 0.7446241306155419 0  -1.02198101643948 0.7197602392723068 0  -1.039337015378182 0.6944627912745027 0  -1.056066956562134 0.6687470248588714 0  -1.07216076250034 0.6426284302415273 0  -1.087608738885889 0.6161227402872302 0  -1.102401580435444 0.5892459210324973 0  -1.116530376494394 0.5620141620682586 0  -1.129986616404304 0.5344438667878525 0  -1.142762194629413 0.5065516425062374 0  -1.154849415639108 0.4783542904563624 0  -1.166240998543424 0.4498687956687354 0  -1.176930081478776 0.4211123167402754 0  -1.186910225741296 0.3921021754986143 0  -1.196175419665261 0.362855846568078 0  -1.2047200822443 0.3333909468436231 0  -1.21253906649318 0.3037252248790801 0  -1.219627662548161 0.2738765501960876 0  -1.225981600504038 0.2438629025201608 0  -1.231597052986177 0.2137023609503765 0  -1.236470637455976 0.1834130930692023 0  -1.240599418248387 0.1530133439990204 0  -1.243980908340246 0.122521425411951 0  -1.246613070848363 0.09195570449958466 0  -1.248494320256466 0.06133459290927246 0  -1.249623523370255 0.03067653565364041 0  -1.25 1.530808498934192e-16 0  -1.249623523370255 -0.0306765356536401 0  -1.248494320256466 -0.06133459290927215 0  -1.246613070848363 -0.09195570449958437 0  -1.243980908340246 -0.1225214254119507 0  -1.240599418248387 -0.1530133439990201 0  -1.236470637455976 -0.183413093069202 0  -1.231597052986177 -0.2137023609503762 0  -1.225981600504038 -0.2438629025201605 0  -1.219627662548161 -0.2738765501960873 0  -1.21253906649318 -0.3037252248790798 0  -1.2047200822443 -0.3333909468436228 0  -1.196175419665261 -0.3628558465680776 0  -1.186910225741296 -0.392102175498614 0  -1.176930081478776 -0.4211123167402752 0  -1.166240998543424 -0.4498687956687352 0  -1.154849415639108 -0.4783542904563621 0  -1.142762194629413 -0.5065516425062371 0  -1.129986616404304 -0.5344438667878523 0  -1.116530376494394 -0.5620141620682583 0  -1.102401580435444 -0.5892459210324971 0  -1.087608738885889 -0.6161227402872299 0  -1.07216076250034 -0.6426284302415269 0  -1.056066956562134 -0.6687470248588712 0  -1.039337015378182 -0.6944627912745025 0  -1.02198101643948 -0.7197602392723067 0  -1.004009414350806 -0.7446241306155416 0  -0.9854330345332579 -0.7690394882257834 0  -0.9662630667034213 -0.7929916052045566 0  -0.946511058133106 -0.8164660536922207 0  -0.9261889066936989 -0.8394486935587731 0  -0.9053088536893338 -0.8619256809213336 0  -0.8838834764831847 -0.8838834764831843 0  -0.8619256809213338 -0.9053088536893334 0  -0.8394486935587733 -0.9261889066936986 0  -0.8164660536922214 -0.9465110581331053 0  -0.7929916052045574 -0.9662630667034209 0  -0.7690394882257841 -0.9854330345332574 0  -0.7446241306155414 -1.004009414350806 0  -0.7197602392723066 -1.02198101643948 0  -0.6944627912745027 -1.039337015378182 0  -0.6687470248588716 -1.056066956562134 0  -0.6426284302415273 -1.07216076250034 0  -0.6161227402872302 -1.087608738885889 0  -0.5892459210324973 -1.102401580435444 0  -0.5620141620682586 -1.116530376494394 0  -0.5344438667878531 -1.129986616404304 0  -0.506551642506238 -1.142762194629413 0  -0.4783542904563629 -1.154849415639108 0  -0.4498687956687349 -1.166240998543424 0  -0.4211123167402749 -1.176930081478776 0  -0.3921021754986143 -1.186910225741296 0  -0.3628558465680781 -1.196175419665261 0  -0.3333909468436231 -1.2047200822443 0  -0.3037252248790802 -1.21253906649318 0  -0.2738765501960876 -1.219627662548161 0  -0.2438629025201608 -1.225981600504038 0  -0.2137023609503771 -1.231597052986176 0  -0.1834130930692029 -1.236470637455976 0  -0.1530133439990199 -1.240599418248387 0  -0.1225214254119506 -1.243980908340246 0  -0.09195570449958419 -1.246613070848363 0  -0.06133459290927254 -1.248494320256466 0  -0.03067653565364049 -1.249623523370255 0  -2.296212748401287e-16 -1.25 0  0.03067653565364003 -1.249623523370255 0  0.06133459290927207 -1.248494320256466 0  0.09195570449958373 -1.246613070848363 0  0.1225214254119501 -1.243980908340246 0  0.1530133439990195 -1.240599418248387 0  0.1834130930692024 -1.236470637455976 0  0.2137023609503766 -1.231597052986177 0  0.2438629025201604 -1.225981600504038 0  0.2738765501960872 -1.219627662548161 0  0.3037252248790797 -1.21253906649318 0  0.3333909468436227 -1.2047200822443 0  0.3628558465680776 -1.196175419665261 0  0.3921021754986139 -1.186910225741296 0  0.4211123167402745 -1.176930081478776 0  0.4498687956687345 -1.166240998543424 0  0.4783542904563625 -1.154849415639108 0  0.5065516425062375 -1.142762194629413 0  0.5344438667878527 -1.129986616404304 0  0.5620141620682583 -1.116530376494394 0  0.589245921032497 -1.102401580435444 0  0.6161227402872298 -1.087608738885889 0  0.6426284302415269 -1.07216076250034 0  0.6687470248588712 -1.056066956562134 0  0.6944627912745023 -1.039337015378182 0  0.7197602392723061 -1.02198101643948 0  0.7446241306155411 -1.004009414350806 0  0.7690394882257838 -0.9854330345332576 0  0.792991605204557 -0.9662630667034211 0  0.8164660536922209 -0.9465110581331058 0  0.8394486935587729 -0.9261889066936989 0  0.8619256809213336 -0.9053088536893338 0  0.8838834764831842 -0.8838834764831847 0  0.9053088536893333 -0.8619256809213339 0  0.9261889066936986 -0.8394486935587733 0  0.9465110581331053 -0.8164660536922214 0  0.9662630667034209 -0.7929916052045574 0  0.9854330345332574 -0.7690394882257843 0  1.004009414350806 -0.7446241306155416 0  1.02198101643948 -0.7197602392723066 0  1.039337015378182 -0.6944627912745027 0  1.056066956562134 -0.6687470248588716 0  1.07216076250034 -0.6426284302415274 0  1.087608738885889 -0.6161227402872304 0  1.102401580435443 -0.5892459210324974 0  1.116530376494394 -0.5620141620682587 0  1.129986616404304 -0.5344438667878532 0  1.142762194629413 -0.50655164250623
[...]
<PointData  Scalars="f_3127633"> 
<DataArray  type="Float64"  Name="f_3127633"  format="ascii">-2.9147248360429394e+00  -3.1078949298561400e+00  -3.2758272637312857e+00  -3.2856697188786232e+00  -3.4317808991812031e+00  -3.3093295073863405e+00  -3.1578695371219805e+00  -3.0643080592679093e+00  -3.1194838224955337e+00  -3.0525685276932384e+00  -3.1325272485336395e+00  -2.8460056573852102e+00  -2.7770631792009954e+00  -2.6935120085548867e+00  -2.4936081755375925e+00  -2.4333556312976832e+00  -2.1973610344511121e+00  -2.0668052920093740e+00  -1.9388864349348796e+00  -1.4593440156311128e+00  -1.4203411098646817e+00  -1.3742216367483089e+00  -1.4582993207641617e+00  -1.3143700424185063e+00  -1.1341118006799547e+00  -7.7681755152224508e-01  -5.2275595982264467e-01  -3.6026218366210089e-01  -5.1812964695905434e-02  -7.5413455159086762e-02  1.1052021214906418e-01  5.2225203030193268e-01  6.8489613338712452e-01  8.7785050908066553e-01  1.0326855208031462e+00  9.8105009856990000e-01  1.1041795146594391e+00  9.7039281867230287e-01  1.1653698659839513e+00  1.3245451387843372e+00  1.3410390244700254e+00  1.5395813681145076e+00  1.6205873252226788e+00  1.6601368038971485e+00  1.6477235463631157e+00  1.8668036274209481e+00  1.8676885022523571e+00  1.8125664997062580e+00  1.8241409254560983e+00  1.7627607745254363e+00  1.5982906094182536e+00  1.5434998053007236e+00  1.6311599557863576e+00  1.6281656767923642e+00  1.6762963543751823e+00  1.7058585596575182e+00  1.7475372576077657e+00  1.8908477453511439e+00  2.0003455114657123e+00  2.2528905375743542e+00  2.6275832825454537e+00  3.0664663013195037e+00  3.6219572421948678e+00  4.3143261552373069e+00  4.9322499693571942e+00  5.7286739878607849e+00  6.5530461044687893e+00  7.5787102947947877e+00  8.4809039940105340e+00  9.3658726375953645e+00  1.0666159129771415e+01  1.1833137997536610e+01  1.3479813208803755e+01  1.4569691642993270e+01  1.5972985009963613e+01  1.6961081625766766e+01  1.7960764834734913e+01  1.8772016894870042e+01  1.9541066040514959e+01  2.0987031631626870e+01  2.1933890756486317e+01  2.3171002136894277e+01  2.4354903800810860e+01  2.5220830203854426e+01  2.5993345092291037e+01  2.6564965397067986e+01  2.7523980265994169e+01  2.8384432600861892e+01  2.9047623227244070e+01  2.9051450707333071e+01  2.9415170506218498e+01  2.9599979780640265e+01  2.9770050897973320e+01  2.8909580805172155e+01  2.9050307330988151e+01  2.8308470013102561e+01  2.5997238281573459e+01  2.4651380830897892e+01  2.2483973861713167e+01  2.0949850908656970e+01  1.9240939114108581e+01  1.6557008051589900e+01  1.2159551591098310e+01  7.2458426319230602e+00  3.8408969749695414e+00  -6.1901858033649271e-01  -5.0890824413818008e+00  -1.4453193072505076e+01  -2.2291015423166115e+01  -3.0841370695586441e+01  -3.7827972504237529e+01  -4.8707536745637363e+01  -6.2315295470366138e+01  -6.7065359153034038e+01  -7.6053186514688790e+01  -8.7080726283868174e+01  -1.0343675938828312e+02  -1.1360738496735627e+02  -1.2950237274246629e+02  -1.4650566241320846e+02  -1.5999876139092336e+02  -1.7452288605933236e+02  -1.8913020961540357e+02  -2.0246880174522846e+02  -2.1439284845917038e+02  -2.2671216878998311e+02  -2.3761201734263361e+02  -2.4727287840791533e+02  -2.5602582618063377e+02  -2.6370226056724664e+02  -2.7050317671199076e+02  -2.7627097501572064e+02  -2.8135029275424353e+02  -2.8561236670711600e+02  -2.8871342461490036e+02  -2.9043136796998658e+02  -2.9020043819007452e+02  -2.8771806790358647e+02  -2.8360104395953175e+02  -2.7947084807497447e+02  -2.7131507154806548e+02  -2.6519935161185549e+02  -2.5998559410976873e+02  -2.5422738441022955e+02  -2.4188594231709192e+02  -2.3273219307138049e+02  -2.2407302282966330e+02  -2.1352477239432378e+02  -2.0146511129562268e+02  -1.9040304440779110e+02  -1.7964494461377913e+02  -1.7072892953128368e+02  -1.6123332369938214e+02  -1.4969625446160958e+02  -1.4095100687375739e+02  -1.2939368185962084e+02  -1.2203430358488123e+02  -1.1406517596944839e+02  -1.0099971371268430e+02  -8.8289420235712754e+01  -8.2307148524158166e+01  -7.3840586602633849e+01  -6.1540440647104951e+01  -5.2674280189086552e+01  -4.1557610170369756e+01  -3.2257207687400303e+01  -2.4604139914712857e+01  -1.1019666669463803e+01  -3.6662569549251680e+00  4.2399397862978372e+00  9.3947532250723036e+00  1.5283551857474464e+01  2.0132558037356382e+01  2.6656873032714419e+01  3.1962583022711794e+01  3.5294688397896870e+01  3.8190697500106488e+01  4.3007281474118720e+01  4.6819606630252196e+01  5.2035102786261426e+01  5.4419617639073948e+01  5.7152831543077319e+01  5.9359013395283021e+01  6.1772653647287292e+01  6.2972331438977498e+01  6.4233969506211153e+01  6.4895055840288393e+01  6.6167174557899870e+01  6.7763759448113632e+01  6.8839668709993447e+01  6.9262717348290792e+01  6.9643602458426315e+01  6.9536030255582801e+01  6.9582265182461768e+01  6.9482991528718230e+01  6.9341771506842292e+01  6.8704926113279782e+01  6.8074215415394860e+01  6.7238018709773613e+01  6.6651416702116109e+01  6.5656908256548320e+01  6.4435209423719996e+01  6.2573866818057461e+01  6.1533529205188593e+01  6.0288601047171433e+01  5.8787066701815064e+01  5.7358712414296996e+01  5.5121333859010697e+01  5.3611555271394082e+01  5.1741867368451530e+01  5.0588012622542081e+01  4.9664155563584082e+01  4.7089827899119257e+01  4.5353681304313405e+01  4.3045309384856587e+01  4.1019040419911256e+01  3.9552702344270500e+01  3.8583401375443088e+01  3.6444049236851917e+01  3.5077298756705027e+01  3.3761208360882819e+01  3.1201381072954373e+01  2.9531615094440589e+01  2.8196470017241545e+01  2.6360988177083509e+01  2.3841160951476294e+01  2.2129217959461275e+01  2.0704019492747374e+01  1.9204472653193541e+01  1.7390017404576270e+01  1.5697129906357961e+01  1.4364241234359877e+01  1.2691309869414100e+01  1.1488820555037995e+01  1.0013989616375472e+01  8.8705595585775274e+00  7.1940978468666215e+00  6.2503457632106798e+00  5.6404935057141463e+00  4.6762137410604101e+00  3.5846697881211700e+00  2.7049151779185530e+00  2.0781070209622823e+00  1.1560161234951791e+00  4.2700319476489335e-01  -1.7627521733673798e-01  -5.6225932425380476e-01  -9.3791393009950319e-01  -1.2876543093872941e+00  -1.5602235170973151e+00  -1.8729216995013225e+00  -2.0619058343315873e+00  -2.2309814564311807e+00  -2.3606574631790522e+00  -2.5717628430553261e+00  -2.6984768740084157e+00  -2.7174606628787679e+01  -2.6912123747523299e+01  -2.6782084046455935e+01  -2.6435210920474052e+01  -2.5907516046768301e+01  -2.5065089152015247e+01  -2.3874409764320987e+01  -2.2749807348475734e+01  -2.1505759127157063e+01  -1.9703082164293345e+01  -1.8253317216995292e+01  -1.6228059403642483e+01  -1.4183701111071672e+01  -1.1938373727752852e+01  -9.4111035483371879e+00  -6.8118104529527628e+00  -4.4318441048590005e+00  -1.4529565663161508e+00  1.5098585831303484e+00  5.2050890997966857e+00  8.0066199303613015e+00  1.2074920754968151e+01  1.5825524208459324e+01  1.9512985280525857e+01  2.2837738056006248e+01  2.5680293200781783e+01  2.9652773305170761e+01  3.2891470587626202e+01  3.6075482564370724e+01  3.9212642186923567e+01  4.3633144802100539e+01  4.7769147629204994e+01  5.1067764413353189e+01  5.4854483812248006e+01  5.8051333359691760e+01  6.1025025258985629e+01  6.3525521298697264e+01  6.5917945483976183e+01  6.8148233654748267e+01  7.0464357183190870e+01  7.2998054853008114e+01  7.5450371600018968e+01  7.8237628974925158e+01  8.1110468755306641e+01  8.3629455118434066e+01  8.5480249759639420e+01  8.7402550374219231e+01  8.9725926589136918e+01  9.1341710761482048e+01  9.2982657100631059e+01  9.4413865599706455e+01  9.5462820140917529e+01  9.6432254346535913e+01  9.7769757323665502e+01  9.8315079000677542e+01  9.9021094908922706e+01  9.8558120823774331e+01  9.7034616085356660e+01  9.6814550078619021e+01  9.5744829254498896e+01  9.5005989851845428e+01  9.3316083531782198e+01  9.2523234889381015e+01  9.1063876392747858e+01  8.9340756452525568e+01  8.6945248015152984e+01  8.3755364512394181e+01  7.9767314179349412e+01  7.5037051836415912e+01  7.1928326766582686e+01  6.9026687526324693e+01  6.5755972032079143e+01  6.1218971386305704e+01  5.7118140746555703e+01  5.2554229604266332e+01  4.6425695398854472e+01  4.2489040616059079e+01  3.7196476986831044e+01  3.0658778874581166e+01  2.1574033770615689e+01  1.6281620942244892e+01  1.1057764976513401e+01  2.0633803612655228e+00  -5.0682623651808871e+00  -1.2366556868239970e+01  -2.1387776647768927e+01  -3.3478107349243679e+01  -4.1645603441960361e+01  -4.9756640663796688e+01  -5.9980405147145973e+01  -6.8664522457286026e+01  -7.6175055772494503e+01  -8.6668131604112091e+01  -9.7945430012894263e+01  -1.0493054784794626e+02  -1.1293259862384794e+02  -1.2255437113204486e+02  -1.3137905635654678e+02  -1.3989828627413277e+02  -1.4986206896330083e+02  -1.5831959389053551e+02  -1.6647610193930407e+02  -1.7347191116014238e+02  -1.8487151201835994e+02  -1.9306507887270047e+02  -2.0234991723899788e+02  -2.0936212929822739e+02  -2.2097983243887850e+02  -2.3057269149384146e+02  -2.3666842306820283e+02  -2.4556635365477322e+02  -2.5621619133457705e+02  -2.6039283777417592e+02  -2.6596703360471571e+02  -2.6989074128834585e+02  -2.7440006823069990e+02  -2.8039133128525395e+02  -2.8543449712656889e+02  -2.8860347236445381e+02  -2.8986408413072741e+02  -2.8994667570516384e+02  -2.8900576459670486e+02  -2.8719103070458794e+02  -2.8457542423432614e+02  -2.8135012314281505e+02  -2.7747979542973565e+02  -2.7296189534426458e+02  -2.6773924964216388e+02  -2.6189959728647926e+02  -2.5529532172666714e+02  -2.4804432236892637e+02  -2.4020547202728238e+02  -2.3134219184897549e+02  -2.2208402715398370e+02  -2.1173930951010988e+02  -2.0055298409348188e+02  -1.9011969425564916e+02  -1.7629312308183265e+02  -1.6453534157866198e+02  -1.5166436148719626e+02  -1.4194492703776189e+02  -1.3125070717636245e+02  -1.1169281555159630e+02  -1.0566618517613134e+02  -9.1168693375172793e+01  -7.8083116290415106e+01  -7.2018197414079893e+01  -6.4713753661241981e+01  -6.0682552367519953e+01  -5.0279752067599730e+01  -3.9443348910244872e+01  -2.9430033850990128e+01  -2.4636583654527549e+01  -1.6868519834581470e+01  -6.6920337815401529e+00  -2.3619601477882730e+00  1.3662783359045665e+00  6.5408484391573687e+00  1.0192779787866375e+01  1.3501213029005680e+01  1.8318921706907730e+01  2.2254120995105303e+01  2.3564682700153675e+01  2.5647415442895337e+01  2.7614961379894499e+01  2.9466404439804197e+01  3.1628375495083681e+01  3.3695872502897409e+01  3.4394979510741159e+01  3.5555669877960334e+01  3.6622318907203891e+01  3.6929803341774409e+01  3.7402790400605276e+01  3.7092041082333353e+01  3.6733137569719716e+01  3.6279959004944473e+01  3.5765282089256402e+01  3.5509195561515192e+01  3.4775581787651035e+01  3.4189088298591010e+01  3.3671051095298907e+01  3.2691657112852532e+01  3.2002094586885761e+01  3.1299239528755646e+01  3.0776469000211733e+01  2.9926440113387773e+01  2.9022692416045491e+01  2.8262335806246661e+01  2.7140301927788020e+01  2.6089469403088781e+01  2.4948869318007919e+01  2.3875833987358501e+01  2.2859014580716742e+01  2.1743071579255659e+01  2.0417732751346453e+01  1.9030168719723658e+01  1.8249661485521532e+01  1.7300610658678600e+01  1.6407578369839772e+01  1.5510693592016626e+01  1.4664124687575821e+01  1.3721183105691653e+01  1.2864719996949903e+01  1.1951254923339793e+01  1.1146327135674611e+01  1.0461585148125272e+01  9.7178908812119857e+00  9.0303708535039444e+00  8.2593789316249442e+00  7.5011388936371555e+00  6.7898986407025550e+00  6.0918844806883197e+00  5.2586583575839558e+00  4.5212529001476840e+00  3.7970878595250386e+00  3.1835803623339003e+00  2.3854209891411764e+00  1.5305581522312590e+00  7.6302661728433330e-01  -8.8354516761219207e-02  -8.5917548415767875e-01  -1.6691293069023247e+00  -2.6530857560817429e+00  -3.4497008122185608e+00  -4.3937063137560495e+00  -5.3430665186488815e+00  -6.4252056006646727e+00  -7.3741360662759057e+00  -8.5019058433753703e+00  -9.7151998320776585e+00  -1.0925967213473321e+01  -1.1961455655461688e+01  -1.2687710234175377e+01  -1.3771927780922070e+01  -1.4815955005120419e+01  -1.5874756782972581e+01  -1.6736631111730070e+01  -1.7567294194177652e+01  -1.8537849824443075e+01  -1.9375435304165958e+01  -2.0263764126841412e+01  -2.1102833950849128e+01  -2.2019916856776813e+01  -2.3001843522133047e+01  -2.4059125981282737e+01  -2.4937282604014474e+01  -2.5728789819581124e+01  -2.6394171660061843e+01  -2.6981448391023758e+01  -2.7470980948109020e+01  -2.7919109531293664e+01  -2.8195567441889004e+01  -2.8351053140410496e+01  -2.8264018007742575e+01  -2.7944933863586137e+01  -2.7452047875133140e+01  -1.2269327114184794e+01  -1.3214597104434711e+01  -6.9154412538868355e+00  -1.1137465092674113e+01  4.4562920652844369e+00  -8.2989084571992482e+00  1.8488932885950675e+01  -5.3208289836545388e+00  3.6439653217881435e+01  -2.7299386322162524e+00  5.1637312453421409e+01  -3.3286633166740554e-01  6.2893412548267541e+01  1.6777358201051145e+00  7.3512577704794964e+01  4.2267560402958866e+00  7.7295546777269209e+01  7.1898959313574178e+00  -8.6061563429536463e+00  7.6585496963249781e+01  -6.1093229188465452e+00  -7.7735788523193898e+00  2.1326636990464240e-01  -1.9090132634298605e+01  -5.3130893795274696e+00  -1.5268990631564488e+01  -1.7479337807883628e+01  1.1449301344821082e+01  1.1248841351581220e+01  -6.0911243217384730e+00  -1.3717092458656330e+01  7.1082777084310962e+01  1.0755539006448265e+01  -4.5854161541254115e+00  2.5757263535703544e+01  -9.5816186561210106e+00  2.8634064707212513e+01  -6.5242256093819799e+00  1.6069884989544978e+01  -7.0901402895483780e+00  -2.4002945849469119e+00  -1.9497721415424486e+01  -2.4970459290844560e+00  4.0155346673271374e+01  -5.8657387813009363e+00  -4.8880274531226080e+00  4.8283095659910295e+01  6.3099786415380557e+01  6.2100197483743083e+00  -4.1508968373075676e+00  1.7099246278387216e+01  2.0200875845615048e+01  5.3245832009809632e+01  -1.0009387131463283e+00  7.3840325127384554e-01  -1.1371324633497053e+01  5.3911037546302644e+01  -2.1960764713451941e+00  3.3378473008798785e+01  3.7823704002745608e+01  -1.4003775243447925e+00  -1.8970293094991789e+01  -1.5928130165567755e+01  6.1156384016256588e+01  -1.2211186121188721e+01  -7.4085473530744812e+00  7.8863816076762308e-02  6.3443298485968675e+01  2.4733248423698651e+01  -1.1524114383250053e+00  3.7378082674466533e+01  1.8814623547524818e+01  1.9055195881646516e+00  7.4907177168833130e+01  4.5853680230360702e+01  5.7313491840432249e+01  2.8473297116482328e+01  -1.2157672758117242e+01  -9.5934459521818738e+00  -1.2186933323803054e-01  1.4725281302827302e+00  7.1611542168599556e+01  8.3506621337296016e-01  5.6564141984907970e+01  -1.3502384075896625e+01  2.0485099549078509e+01  8.4034527892253038e+01  5.1067817994392417e+00  -1.0001489979556435e+01  3.9776921876928530e+00  -2.9936612613931075e+00  1.0142679327131704e+01  7.2594761369318363e+01  -3.7522695521891989e+00  3.1588287971451486e+01  5.9837593452608095e-01  6.5687329232806775e+01  2.5701662332643249e+01  7.3092631520365430e+01  -6.8549522888454417e+00  -5.6747047437058606e-02  -5.5906259383404047e+00  -5.3470606236727560e+00  -4.5114359036405176e+00  8.3238471756264332e+00  3.2768323354813047e+00  -2.8341075295207299e+00  1.0763150206910901e-01  8.7050112815802493e+01  -4.1168209829030520e+00  -1.7608760753293895e+00  -1.4589500566747796e+01  -5.9379068790112752e+00  3.2553185515293983e+01  4.4399857163971994e+00  -7.6986644855008688e+00  -1.6312697576871564e+01  2.3305071008795188e+00  -3.3998525932492476e+00  8.8380696473547715e+01  1.1934902081269822e+01  7.6761518940400153e+00  -9.9194980100575201e+00  -1.1934200711190297e+01  -4.7978149963787837e+00  8.1633116444826854e+01  -2.8780191422748569e+01  -9.7210005385108680e+00  -5.2487532349457107e+00  -4.3078741757131516e+00  -2.3547846827778635e+01  1.2170610127954703e+01  1.2835470007611367e+00  7.1887566279134134e+01  -2.3708526084924493e+01  8.4459915184418435e+01  -2.1572860999509167e+01  -1.8618089216279895e+01  3.2757041556122523e+01  7.0842212162516816e+01  1.3289677626015440e+01  8.8119109023452893e+00  5.1453429721173976e+00  -2.0660937972292284e+00  -2.2609096347511262e+01  -2.0670031767655214e+01  -1.0113291859448390e+01  3.9536062636250008e-02  -1.1103485597164415e+01  5.6010955424352083e+01  -4.2773578231199911e+00  -2.4302145263244070e+00  -2.8154542453899118e+00  4.1966248852973997e+01  -7.0937153860791966e+00  -8.7345173496725792e+00  -5.6470696528414512e+00  2.1450837261720281e+01  2.7382537460996470e+01  2.0914511952018429e+01  7.5087677061676530e+00  5.2840969726908460e+00  4.8108133827190308e+01  7.2810721661124838e+00  3.2774416117484563e+01  -1.5831807093757769e+01  -1.7007061541625646e+01  -1.5858525777706843e+01  1.4877836597471989e+01  -1.0899799597604972e+01  6.7758648208633563e+00  -3.7831193201723412e+00  3.4867353182006766e-01  6.4439655331344127e+01  -4.8453191126573287e+01  1.5845124665732206e+01  -8.9581329184097080e-01  -6.7933392642023565e+00  1.5914869741565141e+01  4.9592845462578524e+01  3.6034121569280529e+01  4.0236351230469651e+01  7.1640614512313547e+01  -1.0428854287854460e+01  -1.2183522350003743e+01  2.9543758190492014e+01  -1.1982390798291192e+01  3.3845668082705494e+01  2.5625472232308496e+01  7.5758735659184012e+01  3.1505614636650151e+01  1.7378909645948934e+01  -5.4397101110596391e-01  1.3660017645625169e+01  -1.6828973699064750e+01  -3.1422961453376899e+00  -3.0809209052460496e+00  4.2414530289717149e+01  -7.3365484134469945e+00  9.5963330404236640e+00  -7.4728697196304870e+00  -1.3994053062779587e+01  -6.0681014228574330e+00  -7.3851015659889399e+01  6.8028586201752049e+01  -9.7171327837713619e+00  4.3656094119703575e+00  2.3199694791212902e+01  2.6805843727771679e+00  3.7226020417855501e+01  2.1364651530472042e+01  5.5627415551269188e+01  2.5573377691912497e-02  4.4928403141085060e-01  -9.5630423760312553e+00  6.6404306717248858e+01  7.5794884805728557e+01  -7.1930924090617987e+00  -3.6336168865873102e+00  2.7917139033502430e+01  -5.5905554439366094e+00  4.8211377562626950e+01  5.2357994540740506e+01  2.1524524623548633e+01  -4.6247872454659236e+00  -4.3659581935768621e+00  -3.9109198072196070e+00  -1.5340453177096579e+01  -1.1949587367211203e+01  6.3173893264889408e+01  5.7826581561786995e+01  -4.2635164408026345e+00  -2.4244805164627120e+01  -8.7256086939685762e-01  6.7871001517024638e+01  -1.7156187717994040e+00  4.2395316700044141e+01  4.6789456682354874e+01  1.4685904770579846e+01  -9.1924650470752240e+01  2.4904401688309637e+01  -7.2692731388164911e-01  -1.4724032629335348e+01  -3.0671770654789658e+00  -2.4264907777676971e+01  -1.6324119452453492e+00  1.8862368643294189e+01  -8.9978508236799630e+00  5.1691687118988767e+01  -1.1582253245321390e+00  6.7298967863238445e+01  5.3925123394966521e+00  2.4123225257210706e+01  5.0395016163310899e+01  5.2413484790154499e+00  5.7219267838468575e+01  -4.7937596283142918e+00  5.1626327677971351e-01  6.5328575287792532e+01  7.0706173271812645e+01  6.2719370905990893e+01  5.9452733431312069e+01  7.7841767199564060e-01  5.6884688625371926e-01  -1.1898189541840728e+02  1.3922775082416086e+01  8.0025522545047835e+01  7.8114339264410972e+01  8.6292681043464185e+01  6.5246028256713784e-01  -8.2135116171973532e-01  6.2829605866284197e+01  5.6541397056831613e+01  -3.7818315900812811e+00  9.6104300938108214e+00  -1.3005001483981284e+01  9.7985198312320207e+00  2.9384147433407527e+01  1.3464459788839946e+01  3.1871332205607057e+01  2.4845990921371374e+01  -1.9230097421022299e+00  -6.4272117926928667e+00  8.0915582462162519e+01  2.8511424784982924e+00  1.5662214277492088e+01  -2.8309390920678772e+00  2.0356326294069280e+01  1.9074450327845902e+01  5.2413213750128413e+01  6.8329566371861858e+01  7.5460253725909112e+01  4.0786721483724264e+00  -1.6899351589021276e+00  7.1834544788578526e+01  -6.4532425704169782e-01  1.4238008013185402e+01  9.7641281636644084e-01  -1.8744276002487979e+01  4.3756332907884271e+01  7.5688995623953247e+01  -2.3110953366257210e+00  -4.6