<?xml version="1.0"?>
<VTKFile type="UnstructuredGrid"  version="0.1"  >
<UnstructuredGrid>
<Piece  NumberOfPoints="2563" NumberOfCells="4278">
<Points>
<DataArray  type="Float64"  NumberOfComponents="3"  format="ascii">1.25 0 0  1.249623523370255 0.03067653565364036 0  1.248494320256466 0.06133459290927252 0  1.246613070848363 0.09195570449958429 0  1.243980908340246 0.1225214254119508 0  1.240599418248387 0.1530133439990203 0  1.236470637455976 0.1834130930692022 0  1.231597052986177 0.2137023609503765 0  1.225981600504038 0.2438629025201603 0  1.219627662548161 0.2738765501960873 0  1.21253906649318 0.3037252248790798 0  1.2047200822443 0.333390946843623 0  1.196175419665261 0.3628558465680779 0  1.186910225741296 0.3921021754986144 0  1.176930081478776 0.4211123167402751 0  1.166240998543424 0.4498687956687352 0  1.154849415639108 0.4783542904563622 0  1.142762194629413 0.5065516425062373 0  1.129986616404304 0.5344438667878526 0  1.116530376494394 0.5620141620682582 0  1.102401580435444 0.5892459210324971 0  1.087608738885889 0.61612274028723 0  1.07216076250034 0.642628430241527 0  1.056066956562134 0.6687470248588714 0  1.039337015378182 0.6944627912745027 0  1.02198101643948 0.7197602392723067 0  1.004009414350806 0.7446241306155417 0  0.9854330345332579 0.7690394882257835 0  0.9662630667034212 0.7929916052045569 0  0.9465110581331058 0.8164660536922209 0  0.9261889066936989 0.8394486935587729 0  0.9053088536893338 0.8619256809213336 0  0.8838834764831844 0.8838834764831843 0  0.8619256809213337 0.9053088536893337 0  0.8394486935587729 0.9261889066936989 0  0.8164660536922209 0.9465110581331055 0  0.7929916052045569 0.9662630667034212 0  0.7690394882257835 0.9854330345332578 0  0.7446241306155419 1.004009414350806 0  0.7197602392723067 1.02198101643948 0  0.6944627912745028 1.039337015378182 0  0.6687470248588716 1.056066956562134 0  0.642628430241527 1.07216076250034 0  0.6161227402872301 1.087608738885889 0  0.5892459210324973 1.102401580435444 0  0.5620141620682583 1.116530376494394 0  0.5344438667878527 1.129986616404304 0  0.5065516425062373 1.142762194629413 0  0.4783542904563623 1.154849415639108 0  0.4498687956687353 1.166240998543424 0  0.4211123167402751 1.176930081478776 0  0.3921021754986145 1.186910225741296 0  0.3628558465680779 1.196175419665261 0  0.333390946843623 1.2047200822443 0  0.30372522487908 1.21253906649318 0  0.2738765501960872 1.219627662548161 0  0.2438629025201604 1.225981600504038 0  0.2137023609503767 1.231597052986177 0  0.1834130930692022 1.236470637455976 0  0.1530133439990203 1.240599418248387 0  0.122521425411951 1.243980908340246 0  0.09195570449958432 1.246613070848363 0  0.06133459290927266 1.248494320256466 0  0.03067653565364033 1.249623523370255 0  7.654042494670958e-17 1.25 0  -0.03067653565364018 1.249623523370255 0  -0.06133459290927251 1.248494320256466 0  -0.09195570449958416 1.246613070848363 0  -0.1225214254119508 1.243980908340246 0  -0.1530133439990202 1.240599418248387 0  -0.1834130930692021 1.236470637455976 0  -0.2137023609503766 1.231597052986177 0  -0.2438629025201602 1.225981600504038 0  -0.2738765501960871 1.219627662548161 0  -0.3037252248790798 1.21253906649318 0  -0.3333909468436229 1.2047200822443 0  -0.3628558465680777 1.196175419665261 0  -0.3921021754986143 1.186910225741296 0  -0.4211123167402749 1.176930081478776 0  -0.4498687956687352 1.166240998543424 0  -0.4783542904563621 1.154849415639108 0  -0.5065516425062372 1.142762194629413 0  -0.5344438667878524 1.129986616404304 0  -0.5620141620682584 1.116530376494394 0  -0.5892459210324972 1.102401580435444 0  -0.61612274028723 1.087608738885889 0  -0.642628430241527 1.07216076250034 0  -0.6687470248588713 1.056066956562134 0  -0.6944627912745025 1.039337015378182 0  -0.7197602392723067 1.02198101643948 0  -0.7446241306155417 1.004009414350806 0  -0.7690394882257834 0.9854330345332579 0  -0.7929916052045567 0.9662630667034213 0  -0.8164660536922207 0.9465110581331059 0  -0.8394486935587731 0.9261889066936988 0  -0.8619256809213337 0.9053088536893337 0  -0.8838834764831843 0.8838834764831844 0  -0.9053088536893334 0.8619256809213338 0  -0.9261889066936986 0.8394486935587732 0  -0.9465110581331058 0.8164660536922208 0  -0.9662630667034212 0.7929916052045569 0  -0.9854330345332578 0.7690394882257836 0  -1.004009414350806 0.7446241306155419 0  -1.02198101643948 0.7197602392723068 0  -1.039337015378182 0.6944627912745027 0  -1.056066956562134 0.6687470248588714 0  -1.07216076250034 0.6426284302415273 0  -1.087608738885889 0.6161227402872302 0  -1.102401580435444 0.5892459210324973 0  -1.116530376494394 0.5620141620682586 0  -1.129986616404304 0.5344438667878525 0  -1.142762194629413 0.5065516425062374 0  -1.154849415639108 0.4783542904563624 0  -1.166240998543424 0.4498687956687354 0  -1.176930081478776 0.4211123167402754 0  -1.186910225741296 0.3921021754986143 0  -1.196175419665261 0.362855846568078 0  -1.2047200822443 0.3333909468436231 0  -1.21253906649318 0.3037252248790801 0  -1.219627662548161 0.2738765501960876 0  -1.225981600504038 0.2438629025201608 0  -1.231597052986177 0.2137023609503765 0  -1.236470637455976 0.1834130930692023 0  -1.240599418248387 0.1530133439990204 0  -1.243980908340246 0.122521425411951 0  -1.246613070848363 0.09195570449958466 0  -1.248494320256466 0.06133459290927246 0  -1.249623523370255 0.03067653565364041 0  -1.25 1.530808498934192e-16 0  -1.249623523370255 -0.0306765356536401 0  -1.248494320256466 -0.06133459290927215 0  -1.246613070848363 -0.09195570449958437 0  -1.243980908340246 -0.1225214254119507 0  -1.240599418248387 -0.1530133439990201 0  -1.236470637455976 -0.183413093069202 0  -1.231597052986177 -0.2137023609503762 0  -1.225981600504038 -0.2438629025201605 0  -1.219627662548161 -0.2738765501960873 0  -1.21253906649318 -0.3037252248790798 0  -1.2047200822443 -0.3333909468436228 0  -1.196175419665261 -0.3628558465680776 0  -1.186910225741296 -0.392102175498614 0  -1.176930081478776 -0.4211123167402752 0  -1.166240998543424 -0.4498687956687352 0  -1.154849415639108 -0.4783542904563621 0  -1.142762194629413 -0.5065516425062371 0  -1.129986616404304 -0.5344438667878523 0  -1.116530376494394 -0.5620141620682583 0  -1.102401580435444 -0.5892459210324971 0  -1.087608738885889 -0.6161227402872299 0  -1.07216076250034 -0.6426284302415269 0  -1.056066956562134 -0.6687470248588712 0  -1.039337015378182 -0.6944627912745025 0  -1.02198101643948 -0.7197602392723067 0  -1.004009414350806 -0.7446241306155416 0  -0.9854330345332579 -0.7690394882257834 0  -0.9662630667034213 -0.7929916052045566 0  -0.946511058133106 -0.8164660536922207 0  -0.9261889066936989 -0.8394486935587731 0  -0.9053088536893338 -0.8619256809213336 0  -0.8838834764831847 -0.8838834764831843 0  -0.8619256809213338 -0.9053088536893334 0  -0.8394486935587733 -0.9261889066936986 0  -0.8164660536922214 -0.9465110581331053 0  -0.7929916052045574 -0.9662630667034209 0  -0.7690394882257841 -0.9854330345332574 0  -0.7446241306155414 -1.004009414350806 0  -0.7197602392723066 -1.02198101643948 0  -0.6944627912745027 -1.039337015378182 0  -0.6687470248588716 -1.056066956562134 0  -0.6426284302415273 -1.07216076250034 0  -0.6161227402872302 -1.087608738885889 0  -0.5892459210324973 -1.102401580435444 0  -0.5620141620682586 -1.116530376494394 0  -0.5344438667878531 -1.129986616404304 0  -0.506551642506238 -1.142762194629413 0  -0.4783542904563629 -1.154849415639108 0  -0.4498687956687349 -1.166240998543424 0  -0.4211123167402749 -1.176930081478776 0  -0.3921021754986143 -1.186910225741296 0  -0.3628558465680781 -1.196175419665261 0  -0.3333909468436231 -1.2047200822443 0  -0.3037252248790802 -1.21253906649318 0  -0.2738765501960876 -1.219627662548161 0  -0.2438629025201608 -1.225981600504038 0  -0.2137023609503771 -1.231597052986176 0  -0.1834130930692029 -1.236470637455976 0  -0.1530133439990199 -1.240599418248387 0  -0.1225214254119506 -1.243980908340246 0  -0.09195570449958419 -1.246613070848363 0  -0.06133459290927254 -1.248494320256466 0  -0.03067653565364049 -1.249623523370255 0  -2.296212748401287e-16 -1.25 0  0.03067653565364003 -1.249623523370255 0  0.06133459290927207 -1.248494320256466 0  0.09195570449958373 -1.246613070848363 0  0.1225214254119501 -1.243980908340246 0  0.1530133439990195 -1.240599418248387 0  0.1834130930692024 -1.236470637455976 0  0.2137023609503766 -1.231597052986177 0  0.2438629025201604 -1.225981600504038 0  0.2738765501960872 -1.219627662548161 0  0.3037252248790797 -1.21253906649318 0  0.3333909468436227 -1.2047200822443 0  0.3628558465680776 -1.196175419665261 0  0.3921021754986139 -1.186910225741296 0  0.4211123167402745 -1.176930081478776 0  0.4498687956687345 -1.166240998543424 0  0.4783542904563625 -1.154849415639108 0  0.5065516425062375 -1.142762194629413 0  0.5344438667878527 -1.129986616404304 0  0.5620141620682583 -1.116530376494394 0  0.589245921032497 -1.102401580435444 0  0.6161227402872298 -1.087608738885889 0  0.6426284302415269 -1.07216076250034 0  0.6687470248588712 -1.056066956562134 0  0.6944627912745023 -1.039337015378182 0  0.7197602392723061 -1.02198101643948 0  0.7446241306155411 -1.004009414350806 0  0.7690394882257838 -0.9854330345332576 0  0.792991605204557 -0.9662630667034211 0  0.8164660536922209 -0.9465110581331058 0  0.8394486935587729 -0.9261889066936989 0  0.8619256809213336 -0.9053088536893338 0  0.8838834764831842 -0.8838834764831847 0  0.9053088536893333 -0.8619256809213339 0  0.9261889066936986 -0.8394486935587733 0  0.9465110581331053 -0.8164660536922214 0  0.9662630667034209 -0.7929916052045574 0  0.9854330345332574 -0.7690394882257843 0  1.004009414350806 -0.7446241306155416 0  1.02198101643948 -0.7197602392723066 0  1.039337015378182 -0.6944627912745027 0  1.056066956562134 -0.6687470248588716 0  1.07216076250034 -0.6426284302415274 0  1.087608738885889 -0.6161227402872304 0  1.102401580435443 -0.5892459210324974 0  1.116530376494394 -0.5620141620682587 0  1.129986616404304 -0.5344438667878532 0  1.142762194629413 -0.50655164250623
[...]
<PointData  Scalars="f_3127573"> 
<DataArray  type="Float64"  Name="f_3127573"  format="ascii">2.4897485738886079e+01  2.5054225562560458e+01  2.5278142415154193e+01  2.5337654392357614e+01  2.5626369846109821e+01  2.6043135457049509e+01  2.6428944133335705e+01  2.6853001039479285e+01  2.7243570969378741e+01  2.7789691787481512e+01  2.8278534893452239e+01  2.8708830194865591e+01  2.9215210119609882e+01  2.9743444282106726e+01  3.0296484094387335e+01  3.0872162353062137e+01  3.1566833035803036e+01  3.2145884751131675e+01  3.2826054472219461e+01  3.3568594617785500e+01  3.4104788875041685e+01  3.4735659699814576e+01  3.5350630425808582e+01  3.6059626972720963e+01  3.6845096355236308e+01  3.7670930276600863e+01  3.8510091692162050e+01  3.9297674404655353e+01  4.0182440905909544e+01  4.0894691673564090e+01  4.1771515504474579e+01  4.2786051908709396e+01  4.3655897625343584e+01  4.4507864697688518e+01  4.5366393190757982e+01  4.6028750561213279e+01  4.6828979773532637e+01  4.7514576498549957e+01  4.8433911643027947e+01  4.9375656044588169e+01  5.0230226338756779e+01  5.1238117718064174e+01  5.2113618073975019e+01  5.3008910232114737e+01  5.3865507464801901e+01  5.4888368934315530e+01  5.5742553907856745e+01  5.6556117748622768e+01  5.7455172458111271e+01  5.8239088353510034e+01  5.9024784539780228e+01  5.9943393999063453e+01  6.1036418914121889e+01  6.2074823716083841e+01  6.3231667266039196e+01  6.4335355616780873e+01  6.5587288273629071e+01  6.6967698297344654e+01  6.8476045579415242e+01  7.0326420526044373e+01  7.2454817147289077e+01  7.4788827053280741e+01  7.7371890725892612e+01  8.0288853145466348e+01  8.3138764572586140e+01  8.6289528819857267e+01  8.9723676986729984e+01  9.3597093125459736e+01  9.7414837109518913e+01  1.0118730005680388e+02  1.0637632433319148e+02  1.1115154078512393e+02  1.1748893712518611e+02  1.2236133102415523e+02  1.2806852944152442e+02  1.3333731590763395e+02  1.3836032514438017e+02  1.4333986804411879e+02  1.4846485555043856e+02  1.5619935930715616e+02  1.6214878132954178e+02  1.7002288333003628e+02  1.7783163870243288e+02  1.8441632972557463e+02  1.9176014087875524e+02  1.9806364351907558e+02  2.0794679861325230e+02  2.1751391280170546e+02  2.2732387146811851e+02  2.3643457932597366e+02  2.4984751442757252e+02  2.6376388984918520e+02  2.7176854381913876e+02  2.8832327648605246e+02  3.0183639111778609e+02  3.1005811874644780e+02  3.2991576628848338e+02  3.4247983120575935e+02  3.5939471173943082e+02  3.7143632491486869e+02  3.8454066120037658e+02  3.9595935220602206e+02  4.1587356544692068e+02  4.3736644397511554e+02  4.5068216093394358e+02  4.6467152279620194e+02  4.7708099473884545e+02  4.9816396076871030e+02  5.1620916411245480e+02  5.3395787177222030e+02  5.4261333902693127e+02  5.6293355165221624e+02  5.8555496677894132e+02  5.8745936814879030e+02  5.8934792442268895e+02  5.9273137147266061e+02  6.0202238276614628e+02  5.9149699846345391e+02  5.7673029318006559e+02  5.5682452202513434e+02  5.3517724362361866e+02  5.0134085424051233e+02  4.5451309056132271e+02  4.0291700620197889e+02  3.4879029846577828e+02  2.8940000678972814e+02  2.2798730606039774e+02  1.6727448025010483e+02  1.0697346102830105e+02  4.8415200402683382e+01  -7.4345209040053977e+00  -5.9786092051230476e+01  -1.0704991190593414e+02  -1.5058138794640564e+02  -1.8873575926550666e+02  -2.1922957775516022e+02  -2.4150635179807514e+02  -2.5318907795935829e+02  -2.5910482322904005e+02  -2.5843038667073512e+02  -2.4908310012990566e+02  -2.3835068883806596e+02  -2.2531776222165686e+02  -2.1038505064731785e+02  -1.8460388438113890e+02  -1.6045815591312495e+02  -1.3889753645413973e+02  -1.1442302766884605e+02  -8.6337546877269773e+01  -5.9620795887836437e+01  -3.5238388441225112e+01  -1.6201051601909256e+01  4.1098256956805432e+00  2.7843754819348121e+01  4.5668445501821004e+01  6.6211272764912053e+01  7.6150588476275288e+01  9.0095655152051975e+01  1.0699493787667751e+02  1.2934967352289453e+02  1.4499030425963863e+02  1.4851828876775943e+02  1.7278255622690557e+02  1.6908621052398010e+02  1.9410562516190205e+02  2.1066911769251266e+02  2.0984109025980067e+02  2.2252541548974568e+02  2.2294110740500119e+02  2.2745936418188865e+02  2.3225895216672276e+02  2.3675391064258301e+02  2.4088452638875810e+02  2.4256817443390210e+02  2.4498168764399063e+02  2.4786308886326199e+02  2.4928554143509260e+02  2.4789962770614096e+02  2.4754134576462053e+02  2.4728501231546520e+02  2.4753184221634720e+02  2.4658714586033872e+02  2.4678973749251699e+02  2.4442775032765266e+02  2.4540247384467253e+02  2.4302609290883575e+02  2.4141244749743620e+02  2.3345400440036207e+02  2.2674883969476662e+02  2.2416931409337084e+02  2.2243290138998600e+02  2.2093289575375636e+02  2.1114231056377849e+02  2.0749685878800682e+02  2.0272347606165681e+02  1.9920091567345722e+02  1.9415039405178106e+02  1.9009747747740980e+02  1.8507053336326189e+02  1.8275082502165586e+02  1.7820352141105920e+02  1.7309496411109205e+02  1.6475666383804267e+02  1.6109062319570776e+02  1.5703762079284732e+02  1.5234649387231696e+02  1.4824959025359243e+02  1.4192009867965328e+02  1.3813370784350420e+02  1.3268510386788793e+02  1.2965041932149683e+02  1.2792782725699398e+02  1.2127754289753057e+02  1.1707419580832874e+02  1.1147639048921600e+02  1.0684195381476830e+02  1.0370771871810400e+02  1.0238685094248834e+02  9.7784425569150130e+01  9.4892057132014557e+01  9.2515102418280179e+01  8.6819987686671652e+01  8.3642753115216621e+01  8.1284480475861784e+01  7.7533772030766656e+01  7.2174003788956767e+01  6.8835213572020862e+01  6.6212237107611017e+01  6.3497904365004565e+01  5.9815923514347951e+01  5.6378085041042716e+01  5.4098850774593082e+01  5.1045448020853307e+01  4.8809850098055129e+01  4.6087947219465093e+01  4.3978729868254504e+01  4.0923248978873758e+01  3.9143167637184575e+01  3.8692228560653490e+01  3.6783186277727737e+01  3.4854544863097708e+01  3.3162891574202945e+01  3.2190013963109138e+01  3.0598290409375554e+01  2.9382732337445276e+01  2.8655638754783006e+01  2.8274842926284496e+01  2.7982249066026650e+01  2.7546600983955596e+01  2.7500038297547079e+01  2.6648095878302502e+01  2.6192164964780616e+01  2.6112768548892102e+01  2.5506124389972108e+01  2.5357416827745315e+01  2.5133483306586097e+01  2.6322317576196603e+01  2.7180087698488769e+01  2.8283031860633898e+01  2.9938842402073298e+01  3.1883036012862242e+01  3.4444871329083412e+01  3.6768651747208864e+01  3.8783121067943583e+01  4.1287687190968462e+01  4.4714863911131154e+01  4.7334313997304854e+01  5.1094992742509987e+01  5.4477732664656166e+01  5.8660250190682561e+01  6.2814611122080073e+01  6.7202276167157692e+01  7.1329946494302575e+01  7.6348272453164341e+01  8.1677590716330187e+01  8.7821491373599684e+01  9.2676660520408362e+01  9.9868484781159069e+01  1.0588899651134436e+02  1.1139702414396058e+02  1.1607912469297557e+02  1.2023378684387680e+02  1.2692698700767919e+02  1.3228026459744996e+02  1.3758219992778965e+02  1.4303337196388486e+02  1.5173284491962062e+02  1.6002956931884731e+02  1.6599131837022318e+02  1.7283545608470638e+02  1.7850780845535817e+02  1.8372679320946341e+02  1.8741789434777303e+02  1.9125641873873590e+02  1.9523271254670175e+02  1.9961692485381511e+02  2.0481623053519434e+02  2.0979687244386810e+02  2.1620237710926583e+02  2.2383334578252556e+02  2.3083888896498627e+02  2.3569642599932220e+02  2.4079479847539352e+02  2.4797108936169687e+02  2.5329233796044653e+02  2.5933144063805503e+02  2.6558115985460427e+02  2.7078711039421938e+02  2.7534067925242164e+02  2.8267598154508414e+02  2.8779059259672778e+02  2.9483657189588030e+02  3.0021459694503773e+02  2.9888571270989877e+02  3.0205454317497868e+02  3.0465825595045590e+02  3.0965003576241907e+02  3.1097551680681670e+02  3.1493452797103157e+02  3.1813800393970610e+02  3.2053087940949086e+02  3.2179952332681660e+02  3.2241502446681096e+02  3.1992014310703178e+02  3.1369652994864663e+02  3.0913582791802730e+02  3.0636568722774598e+02  3.0384592403035606e+02  3.0165653908681730e+02  2.9822377344783030e+02  2.9639305013655553e+02  2.9208487217562629e+02  2.8812966080988861e+02  2.8636181596421062e+02  2.8255888185931485e+02  2.7404312608008087e+02  2.6536932906486220e+02  2.6027513028315809e+02  2.5167586630341989e+02  2.4260709991716763e+02  2.3489131692213729e+02  2.2647048636794619e+02  2.1467714408068855e+02  2.0180977763760995e+02  1.8756725710808030e+02  1.7461692257411485e+02  1.6262698053604888e+02  1.5076511192210683e+02  1.3640506985041156e+02  1.1973771943060555e+02  1.0717518891413378e+02  9.1316322686335056e+01  7.1473245699511367e+01  5.2510333889127729e+01  3.3935688880933363e+01  1.3507110105353094e+01  -5.5592410995453880e+00  -2.4148433421418414e+01  -4.2308758224823144e+01  -6.7177991800167192e+01  -8.8450955083215320e+01  -1.1030384320853265e+02  -1.2927143018939876e+02  -1.5231798493426206e+02  -1.7648432221373756e+02  -1.9618110342088264e+02  -2.1501385168080964e+02  -2.3966029033722987e+02  -2.5203094466133410e+02  -2.6838587826894445e+02  -2.7918848134282672e+02  -2.9029951290786539e+02  -2.9965806844808975e+02  -3.0723079641221847e+02  -3.0540953672539820e+02  -2.9482408196685969e+02  -2.7553252914969659e+02  -2.5088713187729812e+02  -2.2054703384709072e+02  -1.8613070069822118e+02  -1.4849645784987433e+02  -1.0812136743013097e+02  -6.6292217778394132e+01  -2.1965242727923645e+01  2.4584072313987058e+01  7.3082178329846784e+01  1.2300220147420478e+02  1.7332211108402663e+02  2.2430075018313119e+02  2.7376650281928147e+02  3.2329549935862832e+02  3.7259161287192205e+02  4.1592753287670814e+02  4.6037532681544053e+02  4.9353839876854909e+02  5.2303742858893384e+02  5.4595526980603370e+02  5.6483702188471887e+02  5.8127772754296768e+02  5.9782592815187627e+02  5.9556994179750473e+02  5.8948437967331438e+02  5.9444524096159319e+02  5.9247960581430380e+02  5.9322171795137433e+02  5.8391265072075169e+02  5.6856503813969618e+02  5.5037061885573928e+02  5.4519339981236419e+02  5.3278526570321606e+02  5.0753867828289384e+02  4.9561489299091863e+02  4.8717222853068165e+02  4.7399976945346418e+02  4.6214195633107033e+02  4.5182768314562639e+02  4.3516378476401707e+02  4.1272229394182352e+02  4.0314662202001796e+02  3.9317747074857800e+02  3.8301962067944186e+02  3.7124487965445672e+02  3.5893564168750680e+02  3.4124495541225036e+02  3.3036683520754161e+02  3.2028588531524321e+02  3.0633833762111959e+02  2.9723975468864938e+02  2.8256558794671895e+02  2.7321612738938438e+02  2.6233308472189526e+02  2.5161005620816468e+02  2.4314492446532438e+02  2.3567412459232094e+02  2.2545146207650998e+02  2.1743352514897498e+02  2.1019727731974169e+02  2.0133020089444287e+02  1.9467829017764336e+02  1.8819982405809716e+02  1.8201090029926027e+02  1.7533334215767931e+02  1.6931459306074657e+02  1.6395028636374164e+02  1.5771498174792202e+02  1.5216468234836930e+02  1.4664130309025299e+02  1.4159584016757114e+02  1.3681026347315185e+02  1.3183116989951841e+02  1.2675813847488918e+02  1.2164414606332141e+02  1.1780999615652809e+02  1.1381430635901540e+02  1.1021298079293133e+02  1.0674144428944693e+02  1.0342493936172708e+02  1.0006778248400036e+02  9.7008642524502065e+01  9.3878830443802016e+01  9.1058206957713224e+01  8.8617542539041636e+01  8.6091272296780645e+01  8.3734831646828894e+01  8.1387306999788734e+01  7.9176431828506125e+01  7.6964777073459459e+01  7.4919433265397601e+01  7.2816832522407196e+01  7.0808697076703851e+01  6.8755551125443233e+01  6.6853446212039287e+01  6.4857184615630317e+01  6.2962959823354872e+01  6.1169739805079651e+01  5.9358674374201300e+01  5.7643815238536732e+01  5.5986809709357324e+01  5.4347604445558801e+01  5.2842213274167840e+01  5.1243812171629699e+01  4.9667724836067443e+01  4.7984140015996076e+01  4.6401790748156884e+01  4.4633385538192499e+01  4.3003210039255471e+01  4.1487075823178593e+01  4.0077466415367049e+01  3.8907119134128727e+01  3.7561176303070638e+01  3.6268584740708206e+01  3.5061616258476633e+01  3.3908562545771709e+01  3.2724575693990914e+01  3.1605738858206117e+01  3.0527859353401290e+01  2.9485007421525392e+01  2.8536226085356006e+01  2.7463992766955208e+01  2.6518089422818761e+01  2.5753426503946635e+01  2.5124027028979491e+01  2.4605987937892664e+01  2.4248075673081242e+01  2.3960914151464564e+01  2.3700509662452465e+01  2.3664590265902095e+01  2.3760117107016001e+01  2.3928263500175980e+01  2.4588282258479605e+01  2.5013647696293596e+01  2.5673932007169554e+01  2.7288621408898194e+01  2.5616957308267811e+01  3.6144005147213271e+01  2.8796813447880051e+01  5.3128662627454666e+01  3.4316044798990958e+01  7.7006137053124817e+01  4.0999011792718740e+01  1.0831155849474642e+02  4.8722124739175506e+01  1.3743472644899700e+02  5.6955836933538315e+01  1.6370169702569686e+02  6.5610927778831737e+01  1.9635665028498630e+02  7.5822632922207887e+01  2.2093484574609124e+02  8.7746447390422276e+01  2.5578138757165949e+01  2.3973628545516357e+02  2.9170325300691719e+01  2.7823037881989094e+01  3.8375774435298823e+01  2.4575372654859812e+01  4.7480928772567580e+01  3.2072146707833134e+01  2.5382031761520995e+01  1.0417927310878581e+02  5.6327207227338199e+01  3.2458377496321077e+01  3.0128916520409817e+01  2.5630977555405133e+02  7.3146677980477875e+01  3.8182481765540551e+01  8.1219396786472274e+01  3.7010832660062917e+01  1.0451676471226487e+02  2.6022105052386795e+01  1.2388626025058853e+02  2.6528970399798016e+01  3.1901139418395385e+01  2.6793318051520234e+01  4.4858585196926335e+01  1.0757194913758910e+02  3.0081740214718192e+01  4.5419806876865060e+01  1.3724162896447342e+02  2.5789548470679216e+02  4.6336119304066756e+01  3.5856937356897006e+01  6.3924756863340242e+01  1.4461274922458898e+02  1.3540301976404356e+02  5.1674668628934960e+01  5.9787455107933752e+01  3.9837173484042566e+01  2.5783985113892714e+02  4.2355774601359521e+01  9.4561124037788545e+01  1.2356868322371788e+02  5.4076680400504273e+01  2.4283739951261225e+01  2.7302672885319197e+01  1.6208271329258096e+02  3.3363256837913077e+01  4.1864373530663329e+01  5.8629450331679259e+01  1.6178272269064772e+02  1.7021134597525753e+02  4.8036152700122507e+01  2.5296431311381724e+02  9.2106405941566123e+01  6.4210690585714801e+01  1.9843904470867002e+02  1.1923075191161745e+02  1.5784735294458883e+02  1.9581959441017310e+02  2.7116413704351050e+01  3.2047535863073790e+01  5.4990798480552101e+01  6.7221139450722092e+01  1.9731332323211515e+02  5.9924358618652029e+01  1.4550075576840572e+02  2.5305769756729195e+01  2.4173288704401355e+02  2.3144969496086506e+02  7.4835329419351908e+01  3.1784240074538783e+01  7.7915296800661537e+01  5.0779671510126761e+01  6.3048671170633369e+01  1.9368039169218363e+02  4.1443847517380696e+01  2.2547953127520216e+02  6.1753351976563046e+01  1.7159793518071751e+02  8.9665069007048956e+01  2.1696976840020335e+02  3.8133858669606433e+01  2.3003135762655191e+02  2.5464546288229993e+01  2.7686504838071507e+01  2.6338608849527407e+01  8.6723561396910029e+01  3.8955639895211107e+01  2.8818712909510385e+01  3.2914032559192563e+01  2.6502303431406801e+02  3.2106277392037114e+01  5.1976029419766640e+01  2.9070818190975277e+01  2.5986325785942125e+01  2.4533538920492748e+02  7.1211478383691031e+01  3.0495940463453042e+01  2.5740299929373489e+01  7.1462066850448736e+01  3.4661516756443135e+01  2.5398336982362721e+02  9.9731662034196972e+01  9.2427015711392585e+01  2.5900808007281249e+01  4.6901449512893265e+01  2.9148319362439388e+01  2.2186638839630902e+02  2.0588958943556167e+02  2.8456587813976661e+01  3.1574853327029739e+01  4.3830078115668329e+01  2.4048553734126298e+01  1.1056544939609002e+02  4.6765687484980724e+01  2.0315758769398309e+02  2.5052644887395836e+01  2.8179044080831687e+02  3.0265393745795308e+01  3.6612386424540254e+01  2.7396472407734865e+02  2.3198955968010591e+02  5.5338950078307562e+01  4.7939333457299512e+01  7.5639421354199314e+01  4.0810527208769827e+01  2.3955351307571572e+01  2.5350887668703585e+01  2.5789627156826967e+01  5.1882969361494965e+01  2.6509501254098762e+01  1.4721533944787353e+02  4.0060288298994735e+01  3.8202150388738943e+01  3.5618347802791511e+01  1.1762536588626844e+02  3.3590161600423293e+01  2.8526083961240325e+01  5.7735363429195054e+01  7.5975182934235761e+01  8.1283351664599977e+01  6.8354975395923447e+01  5.2787863227264133e+01  8.3623529559266203e+01  1.3125672532308943e+02  8.1768802620771126e+01  1.0771251427375724e+02  2.5373642479565675e+01  2.8307540109468917e+01  3.0810588286890198e+01  6.4482976757684384e+01  3.5371685804174341e+01  6.3337303674387243e+01  4.7425786983055197e+01  6.0130282737003789e+01  2.4672902865064353e+02  1.8804448055591524e+02  1.1547399391354662e+02  4.4827321648564549e+01  3.6417502234747644e+01  7.8988767785983185e+01  1.5201986080640751e+02  9.8677033204512654e+01  1.0640150658397040e+02  2.2513424322372975e+02  3.9115389480738052e+01  3.5665071835451208e+01  9.2593510463439117e+01  2.9859670713199847e+01  1.2261096136540185e+02  1.0908201607123411e+02  2.8321431007510949e+02  3.1277088717665936e+02  1.3263250290752475e+02  4.6896299114603707e+01  8.9631307687911558e+01  2.4978165139425112e+01  4.6300209122995554e+01  2.6896493164422573e+01  1.2477099179401614e+02  4.1562068449286727e+01  1.0038486959192916e+02  2.6971132468073797e+01  2.7280119148221875e+01  4.5379711944668777e+01  1.5496364347995092e+02  1.7789342464726056e+02  3.5215620962159058e+01  4.7445913799909555e+01  9.1581193701602288e+01  6.9662140410186339e+01  1.0342836176548280e+02  1.4030523386967627e+02  1.6172355334758620e+02  5.0652088775904737e+01  5.3593337589097921e+01  2.6366299901629549e+01  2.4352474815072563e+02  2.0600893888049814e+02  3.9710298412978382e+01  4.2515289670710629e+01  3.4965499831781938e+02  4.2932634498646316e+01  1.2466409604061162e+02  1.3444230690099099e+02  1.5514209026038003e+02  2.7192453110806763e+01  2.5226935006621172e+01  3.0422245056786213e+01  4.2729233031868397e+01  3.2013436776902616e+01  2.7655847906904989e+02  2.4954000512179161e+02  4.8753668179425567e+01  2.3394398257141027e+01  3.0005126490764596e+01  1.8365559263514083e+02  4.9439403066817007e+01  2.4864689868493886e+02  1.2341949140243067e+02  1.2105422158167744e+02  1.2199651843906670e+02  1.6154682360234327e+02  5.5530036422676034e+01  3.3282296949529787e+01  3.3673847907353768e+01  2.6452767995096767e+01  6.6464742024642192e+01  1.2691251145562423e+02  3.1038083542948794e+01  2.7514312384784739e+02  5.3581116494179710e+01  1.8481533452303054e+02  8.0530321950684694e+01  3.7614529201213003e+02  1.2995110251440073e+02  4.0575976699133491e+01  1.4797008033377051e+02  3.6746548960575737e+01  6.1546516973603936e+01  1.7089241325171488e+02  2.8795795904486727e+02  1.6349995796933140e+02  1.5421633430529721e+02  5.9671790010783411e+01  5.7139806844637846e+01  8.3926648117731546e+01  6.9369545800228394e+01  2.1539754157325967e+02  2.3646722197279053e+02  2.7025457275327261e+02  5.9254534256943096e+01  5.5847957688323781e+01  1.6431291730381304e+02  1.5070186627699420e+02  3.1373838155421765e+01  9.1984967149602426e+01  2.5482353930062196e+01  9.7107486262148342e+01  8.6882767118258386e+01  1.0654905913629364e+02  2.4242635948110166e+02  1.7630611972661305e+02  3.7402295369928126e+01  3.4971131934326081e+01  2.8190905695975499e+02  6.5217019128671851e+01  5.7760436906773684e+01  5.0104765560482207e+01  3.9831057556455494e+02  1.4259043182670467e+02  2.4655619598735444e+02  1.7860765006728798e+02  2.0976556449737151e+02  6.9088711829413128e+01  2.8970567314430134e+01  1.9481499243689049e+02  4.2934375546681402e+01  1.1481384159878462e+02  6.3845919702006242e+01  2.6763220351945535e+01  1.4436365949385478e+02  2.4708613602950200e+02  3.9436315227041376e+01  2.5755837562418058e+01  5.3377775429991388e+01  1.8704243970490435e+02  4.1871008382731659e+01  2.5573892498374164e+01  2.9288589865696789e+01  4.7977118071712987e+01  1.5291508940354416e+02  6.0093129750532803e+01  6.3680172799218937e+01  5.7492977049232124e+01  3.4424844514001627e+01  3.3306603389772697e+01  2.57871