<?xml version="1.0"?>
<VTKFile type="UnstructuredGrid"  version="0.1"  >
<UnstructuredGrid>
<Piece  NumberOfPoints="2401" NumberOfCells="4608">
<Points>
<DataArray  type="Float64"  NumberOfComponents="3"  format="ascii">0 0 0  0.001070538380698371 0 0  0.004277569313095364 0 0  0.009607359798386061 0 0  0.01703708685546806 0 0  0.02653493525245065 0 0  0.03806023374436157 0 0  0.05156362923366253 0 0  0.06698729810778931 0 0  0.08426519384873815 0 0  0.1033233298543955 0 0  0.1240800962605269 0 0  0.1464466094067445 0 0  0.1703270924499866 0 0  0.1956192854956637 0 0  0.2222148834902257 0 0  0.2500000000000299 0 0  0.2788556548905322 0 0  0.308658283817491 0 0  0.339280267348458 0 0  0.3705904774487813 0 0  0.4024548389919803 0 0  0.4347369038900211 0 0  0.467298435384978 0 0  0.5000000000000517 0 0  0.5327015646151253 0 0  0.5652630961100813 0 0  0.5975451610081212 0 0  0.6294095225513188 0 0  0.6607197326516399 0 0  0.6913417161826045 0 0  0.7211443451095605 0 0  0.7500000000000597 0 0  0.7777851165098603 0 0  0.8043807145044185 0 0  0.829672907550091 0 0  0.8535533905933287 0 0  0.8759199037395413 0 0  0.8966766701456674 0 0  0.9157348061513193 0 0  0.9330127018922625 0 0  0.9484363707663832 0 0  0.961939766255678 0 0  0.9734650647475827 0 0  0.9829629131445586 0 0  0.9903926402016341 0 0  0.9957224306869181 0 0  0.9989294616193084 0 0  1 0 0  0 0.02083333333333333 0  0.001070538380698371 0.02083333333333333 0  0.004277569313095364 0.02083333333333333 0  0.009607359798386061 0.02083333333333333 0  0.01703708685546806 0.02083333333333333 0  0.02653493525245065 0.02083333333333333 0  0.03806023374436157 0.02083333333333333 0  0.05156362923366253 0.02083333333333333 0  0.06698729810778931 0.02083333333333333 0  0.08426519384873815 0.02083333333333333 0  0.1033233298543955 0.02083333333333333 0  0.1240800962605269 0.02083333333333333 0  0.1464466094067445 0.02083333333333333 0  0.1703270924499866 0.02083333333333333 0  0.1956192854956637 0.02083333333333333 0  0.2222148834902257 0.02083333333333333 0  0.2500000000000299 0.02083333333333333 0  0.2788556548905322 0.02083333333333333 0  0.308658283817491 0.02083333333333333 0  0.339280267348458 0.02083333333333333 0  0.3705904774487813 0.02083333333333333 0  0.4024548389919803 0.02083333333333333 0  0.4347369038900211 0.02083333333333333 0  0.467298435384978 0.02083333333333333 0  0.5000000000000517 0.02083333333333333 0  0.5327015646151253 0.02083333333333333 0  0.5652630961100813 0.02083333333333333 0  0.5975451610081212 0.02083333333333333 0  0.6294095225513188 0.02083333333333333 0  0.6607197326516399 0.02083333333333333 0  0.6913417161826045 0.02083333333333333 0  0.7211443451095605 0.02083333333333333 0  0.7500000000000597 0.02083333333333333 0  0.7777851165098603 0.02083333333333333 0  0.8043807145044185 0.02083333333333333 0  0.829672907550091 0.02083333333333333 0  0.8535533905933287 0.02083333333333333 0  0.8759199037395413 0.02083333333333333 0  0.8966766701456674 0.02083333333333333 0  0.9157348061513193 0.02083333333333333 0  0.9330127018922625 0.02083333333333333 0  0.9484363707663832 0.02083333333333333 0  0.961939766255678 0.02083333333333333 0  0.9734650647475827 0.02083333333333333 0  0.9829629131445586 0.02083333333333333 0  0.9903926402016341 0.02083333333333333 0  0.9957224306869181 0.02083333333333333 0  0.9989294616193084 0.02083333333333333 0  1 0.02083333333333333 0  0 0.04166666666666666 0  0.001070538380698371 0.04166666666666666 0  0.004277569313095364 0.04166666666666666 0  0.009607359798386061 0.04166666666666666 0  0.01703708685546806 0.04166666666666666 0  0.02653493525245065 0.04166666666666666 0  0.03806023374436157 0.04166666666666666 0  0.05156362923366253 0.04166666666666666 0  0.06698729810778931 0.04166666666666666 0  0.08426519384873815 0.04166666666666666 0  0.1033233298543955 0.04166666666666666 0  0.1240800962605269 0.04166666666666666 0  0.1464466094067445 0.04166666666666666 0  0.1703270924499866 0.04166666666666666 0  0.1956192854956637 0.04166666666666666 0  0.2222148834902257 0.04166666666666666 0  0.2500000000000299 0.04166666666666666 0  0.2788556548905322 0.04166666666666666 0  0.308658283817491 0.04166666666666666 0  0.339280267348458 0.04166666666666666 0  0.3705904774487813 0.04166666666666666 0  0.4024548389919803 0.04166666666666666 0  0.4347369038900211 0.04166666666666666 0  0.467298435384978 0.04166666666666666 0  0.5000000000000517 0.04166666666666666 0  0.5327015646151253 0.04166666666666666 0  0.5652630961100813 0.04166666666666666 0  0.5975451610081212 0.04166666666666666 0  0.6294095225513188 0.04166666666666666 0  0.6607197326516399 0.04166666666666666 0  0.6913417161826045 0.04166666666666666 0  0.7211443451095605 0.04166666666666666 0  0.7500000000000597 0.04166666666666666 0  0.7777851165098603 0.04166666666666666 0  0.8043807145044185 0.04166666666666666 0  0.829672907550091 0.04166666666666666 0  0.8535533905933287 0.04166666666666666 0  0.8759199037395413 0.04166666666666666 0  0.8966766701456674 0.04166666666666666 0  0.9157348061513193 0.04166666666666666 0  0.9330127018922625 0.04166666666666666 0  0.9484363707663832 0.04166666666666666 0  0.961939766255678 0.04166666666666666 0  0.9734650647475827 0.04166666666666666 0  0.9829629131445586 0.04166666666666666 0  0.9903926402016341 0.04166666666666666 0  0.9957224306869181 0.04166666666666666 0  0.9989294616193084 0.04166666666666666 0  1 0.04166666666666666 0  0 0.0625 0  0.001070538380698371 0.0625 0  0.004277569313095364 0.0625 0  0.009607359798386061 0.0625 0  0.01703708685546806 0.0625 0  0.02653493525245065 0.0625 0  0.03806023374436157 0.0625 0  0.05156362923366253 0.0625 0  0.06698729810778931 0.0625 0  0.08426519384873815 0.0625 0  0.1033233298543955 0.0625 0  0.1240800962605269 0.0625 0  0.1464466094067445 0.0625 0  0.1703270924499866 0.0625 0  0.1956192854956637 0.0625 0  0.2222148834902257 0.0625 0  0.2500000000000299 0.0625 0  0.2788556548905322 0.0625 0  0.308658283817491 0.0625 0  0.339280267348458 0.0625 0  0.3705904774487813 0.0625 0  0.4024548389919803 0.0625 0  0.4347369038900211 0.0625 0  0.467298435384978 0.0625 0  0.5000000000000517 0.0625 0  0.5327015646151253 0.0625 0  0.5652630961100813 0.0625 0  0.5975451610081212 0.0625 0  0.6294095225513188 0.0625 0  0.6607197326516399 0.0625 0  0.6913417161826045 0.0625 0  0.7211443451095605 0.0625 0  0.7500000000000597 0.0625 0  0.7777851165098603 0.0625 0  0.8043807145044185 0.0625 0  0.829672907550091 0.0625 0  0.8535533905933287 0.0625 0  0.8759199037395413 0.0625 0  0.8966766701456674 0.0625 0  0.9157348061513193 0.0625 0  0.9330127018922625 0.0625 0  0.9484363707663832 0.0625 0  0.961939766255678 0.0625 0  0.9734650647475827 0.0625 0  0.9829629131445586 0.0625 0  0.9903926402016341 0.0625 0  0.9957224306869181 0.0625 0  0.9989294616193084 0.0625 0  1 0.0625 0  0 0.08333333333333333 0  0.001070538380698371 0.08333333333333333 0  0.004277569313095364 0.08333333333333333 0  0.009607359798386061 0.08333333333333333 0  0.01703708685546806 0.08333333333333333 0  0.02653493525245065 0.08333333333333333 0  0.03806023374436157 0.08333333333333333 0  0.05156362923366253 0.08333333333333333 0  0.06698729810778931 0.08333333333333333 0  0.08426519384873815 0.08333333333333333 0  0.1033233298543955 0.08333333333333333 0  0.1240800962605269 0.08333333333333333 0  0.1464466094067445 0.08333333333333333 0  0.1703270924499866 0.08333333333333333 0  0.1956192854956637 0.08333333333333333 0  0.2222148834902257 0.08333333333333333 0  0.2500000000000299 0.08333333333333333 0  0.2788556548905322 0.08333333333333333 0  0.308658283817491 0.08333333333333333 0  0.339280267348458 0.08333333333333333 0  0.3705904774487813 0.08333333333333333 0  0.4024548389919803 0.08333333333333333 0  0.4347369038900211 0.08333333333333333 0  0.467298435384978 0.08333333333333333 0  0.5000000000000517 0.08333333333333333 0  0.5327015646151253 0.08333333333333333 0  0.5652630961100813 0.08333333333333333 0  0.5975451610081212 0.08333333333333333 0  0.6294095225513188 0.08333333333333333 0  0.6607197326516399 0.08333333333333333 0  0.6913417161826045 0.08333333333333333 0  0.7211443451095605 0.08333333333333333 0  0.7500000000000597 0.08333333333333333 0  0.7777851165098603 0.08333333333333333 0  0.8043807145044185 0.08333333333333333 0  0.829672907550091 0.08333333333333333 0  0.8535533905933287 0.08333333333333333 0  0.8759199037395413 0.08333333333333333 0  0.8966766701456674 0.08333333333333333 0  0.9157348061513193 0.08333333333333333 0  0.9330127018922625 0.08333333333333333 0  0.9484363707663832 0.08333333333333333 0  0.961939766255678 0.08333333333333333 0  0.9734650647475827 0.08333333333333333 0  0.9829629131445586 0.08333333333333333 0  0.9903926402016341 0.08333333333333333 0  0.9957224306869181 0.08333333333333333 0  0.9989294616193084 0.08333333333333333 0  1 0.08333333333333333 0  0 0.1041666666666667 0  0.001070538380698371 0.1041666666666667 0  0.004277569313095364 0.1041666666666667 0  0.009607359798386061 0.1041666666666667 0  0.01703708685546806 0.1041666666666667 0  0.02653493525245065 0.1041666666666667 0  0.03806023374436157 0.1041666666666667 0  0.05156362923366253 0.1041666666666667 0  0.06698729810778931 0.1041666666666667 0  0.08426519384873815 0.1041666666666667 0  0.1033233298543955 0.1041666666666667 0  0.1240800962605269 0.1041666666666667 0  0.1464466094067445 0.1041666666666667 0  0.1703270924499866 0.1041666666666667 0  0.1956192854956637 0.1041666666666667 0  0.2222148834902257 0.1041666666666667 0  0.2500000000000299 0.1041666666666667 0  0.2788556548905322 0.1041666666666667 0  0.308658283817491 0.1041666666666667 0  0.339280267348458 0.1041666666666667 0  0.3705904774487813 0.1041666666666667 0  0.4024548389919803 0.1041666666666667 0  0.4347369038900211 0.1041666666666667 0  0.467298435384978 0.1041666666666667 0  0.5000000000000517 0.1041666666666667 0  0.5327015646151253 0.1041666666666667 0  0.5652630961100813 0.1041666666666667 0  0.5975451610081212 0.1041666666666667 0  0.62
[...]
<PointData  Scalars="f_2215786"> 
<DataArray  type="Float64"  Name="f_2215786"  format="ascii">-4.1854712529425045e-19  -2.8475560193907304e-20  1.2122218405128025e-19  1.1524179602905475e-19  4.6814582979000609e-20  -1.7664514321815344e-20  1.3369784819283500e-21  1.0252831748524202e-19  -2.5492996495966986e-20  1.4932163507632067e-20  8.6122254533738887e-22  2.8698808119361536e-21  3.5182586254915209e-20  -4.4902884033147801e-20  -1.0285086303182714e-20  -2.1469262109967504e-20  7.0247200453724838e-21  -5.0995364723573876e-20  5.6210940706228123e-20  2.2479361370893812e-20  2.2439936762472757e-20  -4.2187594145912566e-21  -2.0164110059401448e-20  1.6892999857878826e-20  -2.5149635748553625e-20  5.3109107513790688e-22  -6.7535302489177734e-20  9.1538195759524088e-20  9.9942581294569145e-20  -1.2932534666824807e-19  -6.1456418365182816e-21  9.7780683371550138e-20  -4.4690644274825250e-20  -7.1005625093975146e-20  3.5870369947455634e-21  4.7977312838689129e-20  2.7799943759472155e-20  -1.8583685776478782e-20  1.5404185936374695e-20  -3.1758260699822578e-21  1.0079306701521263e-21  -6.1617739355386160e-21  -6.9281529495294871e-20  4.7669890814926691e-20  3.4017009258610661e-20  -6.2311995224538284e-20  -2.0057863990217377e-20  -3.7409365507967830e-20  1.9581551915694064e-19  -9.6634182505177455e-19  -5.1468293560251878e-20  -1.0285953139500193e-19  -5.4128538992116442e-20  -7.2328502034389273e-20  -2.9368698351485258e-20  -3.2262028538405249e-20  -5.5863825791586988e-20  3.5501726478481461e-20  -5.7915024416821346e-20  1.8421385347636141e-20  -8.9903578612502842e-21  3.4599094790786370e-21  9.1444128807150201e-20  -8.9442322062026560e-20  3.0064811163440695e-20  -7.3098275464313593e-20  5.0452634251158725e-20  -2.9872797632276596e-20  -2.3563712091765844e-21  -1.4334648057464236e-20  -4.4204373516991909e-20  9.5851657791726868e-20  -2.6184726327190363e-20  3.7513114415645458e-20  -9.1039592163214789e-20  5.0338536814598549e-20  -5.6955480696117661e-20  -5.1452104223887950e-20  9.0462697260151179e-20  -6.6986943907436885e-20  -6.8131860627222872e-21  -1.6822102477271151e-20  1.0109161627474330e-19  -6.8964759073639753e-20  3.0933691950014000e-21  -4.1102361265013435e-20  3.7383218514461678e-20  -4.5023460580503939e-20  1.8700410499058515e-20  2.7851093085906861e-20  -1.6818289831120959e-20  2.7478505973310034e-20  7.3165242714594180e-21  -9.6488456014154935e-20  4.7898617920386588e-20  -5.1268753905120150e-20  -2.2200718995441605e-20  2.4727777629274702e-19  -1.5663396980709844e-19  2.4004874593848512e-19  6.0042456216977858e-21  5.3160324013395876e-20  -5.9562734482732621e-21  -1.4776431608276063e-20  3.9313654516892235e-21  6.8768141411328751e-20  5.2763341948505019e-20  -3.5878133353857113e-20  -7.2274097362994623e-20  2.3127130983485628e-20  2.1767531459623144e-20  2.1904319660336327e-21  6.9052965267854994e-21  -4.6828066308726225e-20  6.4403670530303853e-20  2.4166829069323560e-20  -8.1196580943251021e-20  9.6483860325387768e-20  -5.9600804437326861e-20  1.0548812916040979e-19  -9.9246139571418185e-20  3.2701998467077740e-20  5.7165938585061687e-20  -1.1234957613112788e-19  1.2125763013702901e-19  -6.5058499548590810e-20  3.6988721006032725e-20  -6.8305779533061151e-20  1.0438295630400503e-19  4.3203471915989919e-21  -1.1368249778533646e-19  8.3778861935439196e-21  8.8690357775059923e-20  -6.9339081763047928e-20  9.9479690269820822e-20  -4.9247786487725280e-20  -4.5014727336059257e-20  8.6229505348605786e-20  -5.0096871477296367e-20  -1.3317279331016753e-20  5.4167477190224179e-20  -1.1987256218829740e-19  8.6681906633421644e-20  1.5556244970263116e-20  3.5177873821414224e-20  9.5948264010729841e-20  -1.1623479011698240e-19  -1.4668438225275132e-19  -3.5736664375759842e-20  -5.4261455390908316e-20  -2.6782788786488819e-20  7.7753686134739163e-21  7.1751446348870002e-20  4.9053135048331894e-20  -3.3333927728001575e-20  -7.3475256825730009e-21  -1.6205315553663917e-19  1.0973550403075770e-19  4.5855980907011848e-20  2.6930197284601660e-20  -8.0728242351849101e-20  4.8352470936898017e-20  2.1728750325468903e-20  -1.5187974509152971e-19  -4.7405522726946795e-20  1.7670477447409061e-19  -5.3000278480042022e-20  8.0862419284584384e-20  -6.9221973016043797e-20  3.6105391331323524e-22  5.5313335122168989e-20  -1.5629149508743879e-19  5.1801184363751487e-20  7.3446007236194058e-20  2.3710275017784094e-20  -1.0492371825681901e-19  8.7917139770619840e-20  6.6784635926094913e-21  -9.3257944369455625e-21  -6.0001438348784821e-20  1.0573542552074351e-20  3.5796488211062163e-20  4.8935340447580064e-20  -9.8970659495369011e-20  2.6377587061295065e-20  2.3154273446521186e-20  9.2975582472357340e-22  4.5824653671434470e-20  -6.6436311661817803e-20  2.9456827539060518e-20  6.7772076104564197e-20  2.0435341372167843e-21  -6.3839293987793849e-20  3.3019749977230374e-20  4.9057418601161085e-20  -2.3828230433227467e-19  2.7013852573512921e-20  1.5361610751708964e-19  6.7708978650437819e-20  2.6168646042732164e-20  -2.4286208514717322e-20  -5.0030616915915298e-20  -4.5099590320482872e-20  4.7386116992224321e-20  -1.7779243823160834e-21  9.4986756110204094e-20  -1.3285339893405821e-21  -4.3098410750698495e-20  -5.4954733371648909e-20  1.4126757534505719e-20  -2.9178250930947087e-20  -1.7037462280111596e-20  3.3217832839767239e-20  1.1133345206424839e-19  -3.3307657531295130e-20  -6.4725277458822000e-20  7.7085826873205425e-20  4.8056294137173242e-20  -1.2078552776122069e-19  -3.1591558736905089e-21  4.4813371517775806e-20  9.6536032303820559e-20  -6.4405380300082286e-20  6.7980240118126891e-21  3.1840492334102124e-20  -6.3859165557906968e-20  -4.2772426259370509e-20  3.1311698687017106e-21  3.3501348801697331e-20  1.0316888885624044e-19  -8.3833630996019259e-20  -8.6374952567172425e-20  3.4042473199974488e-20  1.9923304904014485e-20  6.3532175589846805e-20  -6.7893200788412081e-21  -9.4318786076708103e-21  1.0151863919912189e-19  -6.6267381530265721e-20  -1.1132536229655616e-20  -4.3846272679545300e-20  3.4700282600352682e-20  -1.3761578878950327e-20  -6.5118035876455494e-20  2.2174249344433048e-19  4.4042735668717081e-19  -2.2984562060105991e-20  4.7652734171371671e-21  1.8941332941205063e-20  1.4397383825063751e-20  4.3594159332482266e-20  5.9797755611565819e-20  1.0267812344583436e-20  -1.0778436752110280e-20  -1.5441913660604436e-20  -5.6269471250766583e-20  -6.4875670291003566e-20  1.1671441307805273e-19  -1.6145894837714363e-19  1.2005761158778111e-19  2.4524128124070723e-20  4.8550310076664023e-22  2.5320525358769978e-20  -4.1958089640012493e-20  4.9973972720642968e-20  -1.0341445686504426e-20  -6.4956327263552233e-20  -4.2717689323302537e-21  6.4172285613139198e-20  -9.2001243527472311e-20  2.6128563488381735e-20  4.2923860584913315e-20  6.7286760755851015e-20  -6.9618135766298016e-20  3.7546857235699159e-20  7.2599023263420174e-20  -9.0424084381011103e-20  4.8245584557657947e-21  -2.6052373913036231e-21  -8.0152198034432270e-20  1.3448720252536785e-19  -4.5862428995834587e-21  1.4053018349926335e-20  -5.1288799872579607e-20  -4.2713339284468439e-20  -8.0914548985115624e-21  -2.7892759411887375e-20  1.6912883647517781e-21  8.3727648704236958e-20  5.8027585081325137e-20  -1.3844578650662508e-20  -5.1169229837465771e-20  4.8578637153442391e-21  2.5420940183650350e-19  8.7443864332464849e-19  -5.9947323869802795e-20  -5.9032249093694054e-20  2.1806459796196588e-20  6.7538576842458690e-20  1.1454293947159597e-20  -1.3519188511767022e-20  -1.4872881740549161e-20  -5.5306331112809341e-20  8.2612636875023167e-20  7.0397998062271355e-20  5.2224834718552134e-20  -1.5989380368728337e-19  1.2139545148775763e-19  2.5570769578761119e-21  -9.2782063347960081e-20  6.1147200749045674e-20  -6.9913380598625185e-20  -1.6175587767395295e-21  -1.2010904148180185e-20  1.4725314036346055e-20  6.2211383522652167e-20  1.7874702720410130e-20  -6.5783803296891977e-20  7.0592582465971269e-20  1.4655320793937117e-20  -4.5967392935348287e-20  -1.6290084864702885e-20  1.3002135145038381e-19  -1.2185055693940751e-19  -2.8256877782463635e-20  -8.2626202404103551e-21  9.8593107414277955e-20  -1.1065857726982053e-19  1.0823480412303739e-19  -6.9915066994622552e-20  -1.4156755875801693e-20  2.0090776172643287e-20  5.5374570040961105e-20  6.6623303595247527e-21  1.3456046051474922e-20  5.9931411254454035e-20  3.0702032729628508e-20  -6.7575087486577032e-20  -7.4410564566419682e-20  5.1306087613762523e-20  7.3145986869782767e-20  1.1382145589355990e-19  -1.2911666550647360e-19  2.8829404643394397e-19  -4.6817421928527160e-20  1.0846213331224771e-20  -3.1307593264850421e-20  -6.7787988775404523e-20  -7.5186293397071040e-20  2.6216633478472539e-20  1.4225363664276013e-20  -2.3896865192597466e-20  -1.0426146459465372e-21  1.2816730483389969e-20  2.0348325701980537e-21  7.5096850769489845e-20  -8.7107781284686259e-20  7.8304061798224858e-20  -3.1072796528208250e-20  4.8087245162499100e-21  9.4668832044908828e-21  -2.3473732847930924e-20  2.5465093901412977e-20  4.1258657796933080e-21  3.4188185878834439e-20  -5.3044163988497430e-20  -1.2257398359133069e-20  7.7831821218186778e-21  6.7622193467475475e-20  -6.6777207077824188e-20  1.0605951188401712e-20  -9.0370309635064679e-20  1.1916814950488711e-19  2.9021841783821786e-20  -2.3594917549260616e-20  -1.7143206358075241e-20  -5.5186547986366503e-20  9.0915883856962088e-20  -6.9302600558660675e-20  4.2987571636421808e-20  6.7439878680848271e-20  -7.7990456535105152e-20  -2.9963333082700011e-20  7.1665178261574498e-20  6.0881251573414196e-20  -7.2928752318551374e-21  1.3424759482197672e-22  -2.8191436356666579e-20  1.1163120156268230e-20  -5.0136444875876690e-20  3.9723350556127070e-20  -2.7056625063336540e-19  3.0061734932946572e-19  7.3575215692028645e-20  3.2935713376275637e-21  1.6791161413449222e-20  3.6744073658281632e-20  -3.8174306656447828e-20  5.1155592614131558e-20  -4.3854723448118851e-20  2.5846774687086388e-20  6.1142662166231738e-20  -7.7846422219677493e-20  4.0686364961464094e-20  -2.4304602533083983e-20  1.3048066757724407e-19  -1.9421718547190706e-19  4.0703522543493507e-20  -4.1246856006441489e-21  5.0624326360681089e-20  1.8821462010046227e-21  -1.7819933101989610e-20  5.6693511705413880e-21  -7.1847556557710255e-20  9.0835507700625297e-20  -4.8002927263195160e-22  7.5205065614704462e-20  -6.5891151433266572e-20  -3.2118412515254866e-20  2.3991909042622424e-20  -6.7450381727904643e-22  -6.9066653954526038e-21  1.3579620137533180e-20  -2.3001550163878466e-20  4.5729270676928222e-20  5.2572330252863956e-20  -4.4942827413170459e-20  -5.1752766055512667e-20  -7.1337908479113559e-20  -8.2195119036678202e-20  4.2022257769569386e-20  1.8007884383537152e-19  -1.2558717269062869e-20  -3.5136753440192114e-20  4.9473566598767282e-20  -3.2675534888040469e-20  2.7052953364252440e-20  8.3211041077158530e-21  6.5626422960460894e-21  3.3218810587630403e-20  -2.0455622904634225e-19  4.0202313355124596e-20  -3.6352088075673824e-20  -2.1697171645214166e-20  7.0514406258754944e-22  1.0689609539830709e-20  8.9464116724989767e-20  -6.2400148178735027e-20  1.6360038628127692e-20  6.7184364382989672e-20  -3.2747482512981335e-20  -1.5611700621181708e-21  -9.7768638421275841e-20  1.2354975707065706e-19  -5.9282070566479998e-21  -6.8821964148308739e-21  7.5921776015776506e-21  8.9666920092899346e-21  9.7236018791399789e-21  -4.6640409021221635e-20  -2.7215842049392736e-20  9.1782697526997710e-20  -1.6532436729047976e-20  4.5768726213293070e-21  4.5733255410750017e-20  -7.7922949259416511e-20  -7.0156207518820486e-21  3.4007157498469564e-20  -1.2911122179237826e-19  6.5230519452420346e-20  1.6015375718195690e-20  1.1413981654359093e-19  -1.4822387655239651e-20  3.1838984562744046e-20  -3.7298267413303830e-20  -1.0074955150507988e-19  6.7205718439916521e-20  6.5236867464761444e-20  -7.8451942842759105e-21  4.7588030836521687e-20  -1.2252179116505914e-19  5.0929350668193965e-21  -7.0306163404078212e-20  -1.0307804689058443e-20  3.0844848087250298e-21  7.7946777669539963e-20  -5.5329902898944421e-21  -2.2995098170002366e-20  9.1972287975653215e-20  3.0726053955541892e-20  4.2628308796014640e-19  1.5831479922980903e-20  1.8721862470807089e-20  -1.1918210168738551e-20  -5.0873314816106430e-20  -5.5626514068737550e-20  2.0042665484421804e-20  4.3545334595220378e-20  1.7665380616076653e-20  -4.7277214901256374e-21  3.5788294916363539e-20  1.0204631612195401e-19  -9.2325950281311510e-20  -4.3877855248766155e-20  4.4719793872059599e-20  3.2006496081509972e-20  -5.3265115380427977e-20  2.2840647752291203e-20  7.1759181436194395e-20  2.2258466432686841e-20  -3.0046116581029594e-20  -9.0137454328322155e-20  4.1175018330378185e-20  -3.1370353441128046e-20  -1.0308216984338515e-19  1.2692974925830432e-19  -3.3205676037806659e-20  5.2788642797853420e-20  -5.5133538419789320e-20  8.6002964762913875e-20  -4.7346709351108513e-20  4.1682080207341960e-20  1.0507452440766213e-20  -4.7755766607890040e-20  5.2206126328459959e-20  -4.5950222895843692e-20  -1.8182443018631322e-20  2.5559607095570191e-20  6.4163293095658267e-20  -2.8291353017274232e-20  2.0167060286116907e-20  -8.4745512119220226e-21  -4.3382664702200000e-20  5.7428862133849673e-20  -9.1676023256362417e-20  2.9389879994296034e-20  1.1215355108044658e-19  -3.8233407444567166e-20  2.5210940701485469e-19  4.3918286802004818e-19  -9.1584781355057515e-20  -5.9201724815260686e-21  -8.3214514166152171e-21  5.1758269890130288e-20  9.2810734398174963e-20  3.6220449310374727e-20  -1.0116725395374543e-19  -3.6355437352152674e-20  2.1426428668124688e-20  -4.1443563214961443e-20  5.8392408194613343e-20  -1.6369489082516187e-20  5.4432398994233625e-20  -1.5806665173782138e-20  -1.9423488411542728e-20  -3.6530108734124689e-21  -7.8491952936885417e-20  8.7454358465019123e-20  5.7060517012646137e-20  -1.2899400761932349e-19  1.1676877423683428e-19  7.4663902313934005e-21  -5.9390490051937100e-20  3.9635762859774590e-20  -7.6100812254690763e-20  9.4477956481311022e-20  4.7113962253117881e-21  4.7501086440872852e-20  -1.5364532724883829e-20  -5.0107464171638793e-20  1.2401160703731435e-20  -7.1553645237096897e-20  5.5236577895212023e-20  1.9377579800960312e-20  -7.9972296747006066e-21  4.3109263507110686e-21  7.8305505576947887e-20  -3.6450980488676318e-20  -5.1104607853903703e-21  -5.1611848852500980e-20  1.0716688904662593e-19  -3.6049683950773341e-20  1.8986189086412131e-21  3.0154614882319529e-20  -3.2701318506527759e-20  -1.0129811198889289e-19  -2.0396475366357178e-20  2.9856331272219761e-19  1.9862524587839087e-19  2.9896522865388571e-20  4.5171366959009915e-20  1.6408132545962095e-20  3.3855063372429516e-20  -3.2370405002813504e-20  -5.3237112408758458e-20  8.9377831417099061e-20  -3.3206223870425655e-21  -1.8425303914571837e-20  -8.2614202418685563e-21  -4.7998824662779054e-20  -4.7998817520570922e-20  4.3879133384073341e-20  3.3115098780442692e-20  8.9082344070107947e-20  -7.6476854562255161e-20  8.9307974739995344e-20  -4.3970205484047910e-20  -3.7752297182839131e-20  -9.2936247761801679e-21  4.8109771004405827e-20  2.8632603563011938e-20  -6.4598967553259921e-20  -8.1926438170788254e-21  4.6710949088681716e-20  -1.0687093917298603e-19  5.5110241798973601e-20  5.9316715046589497e-20  -1.7317177997790891e-20  -1.1080374900043578e-19  5.8880374684464466e-20  -7.5579319943967680e-21  3.4107247896158925e-20  -2.1650298350385663e-21  3.3251085124495115e-20  1.7955779304563542e-20  -5.0771505477855193e-20  -6.0717002504564916e-21  4.9733631630477463e-20  4.0879697934850226e-21  -2.0501108351519895e-21  6.8577540372369578e-20  8.8724984598727889e-21  1.1512860930669907e-20  -7.2697624297124041e-20  5.2225472868558480e-21  -5.5382125704033787e-20  8.9057163280067873e-20  2.5642914406587399e-19  5.3178631952520362e-20  -7.1474407921299330e-20  3.4992104551366159e-20  -3.6938572902381912e-20  1.5634841753378663e-20  8.0642264171849988e-20  -8.2321010027631713e-20  6.2086199406986150e-20  6.7966496787110213e-20  -5.0376676319419351e-20  2.7141385255504493e-20  6.8255780470140323e-20  -1.3791203120076505e-19  4.8981813488602841e-20  -2.4036715390042257e-20  3.3968064879497497e-20  4.1870778619765035e-20  -7.2601129799541579e-20  3.0105231988067779e-20  6.9049020457569845e-21  -5.9319420530056180e-20  -4.6594685040173609e-20  4.9195940730584114e-20  5.4633118469697820e-20  1.4247929957070735e-20  8.9568929851533599e-20  -1.0844514961082978e-19  -5.5156241821263944e-21  -4.2823010281277643e-20  7.8662181957048382e-20  2.6294787326853726e-20  -1.0950339769969672e-19  1.2715669496319672e-20  1.6758456169227575e-20  6.5237922981540732e-21  -2.1165461160090621e-20  3.8790072681136356e-20  -3.0921873169160734e-20  2.7784805707210945e-20  1.0609135179594313e-19  -8.4936076606427978e-21  -7.6141903451260708e-20  -8.0768339902675938e-20  1.6423247978706473e-20  -3.5193354349333723e-20  5.4962266843170034e-20  2.8950516663729521e-20  3.0344185783573464e-19  3.0339687602675836e-19  -5.5102304774579087e-21  4.3437253457698193e-20  -5.1661516745148443e-20  -5.4505269817820589e-20  -5.3224818313517475e-20  -1.1698395677117413e-19  1.2692724790117912e-19  3.0382940906003103e-20  -3.4210526882919190e-21  7.4806341915179289e-20  7.9075145603880261e-21  -6.2184878368590356e-20  8.2153039880622453e-20  6.4000735963465330e-20  -5.8751177273990740e-20  4.1646788560891866e-20  -6.5451613793718756e-20  9.1651392116979366e-21  -1.1565635066801955e-20  4.4745224632778881e-20  -1.0569897957407575e-19  3.7268114451935040e-20  3.4207367802112328e-20  -3.9386004896651040e-20  6.4304936976108104e-20  -4.2717360101675850e-20  4.3029155741414102e-20  3.4373543066503396e-20  -5.4984047741892204e-20  1.9375159906126161e-20  -6.4531960349807962e-20  7.9454656995900176e-20  -3.0668970934009621e-20  -1.1934352745147285e-20  -1.1191916028714974e-20  -5.8674605130128740e-20  5.7693701842836304e-20  5.9429406907220803e-20  -6.2403306475734224e-20  1.1278293548297612e-20  -1.4450275707216870e-19  7.6742445319302927e-20  1.0579256998873796e-19  -2.6789412538201620e-20  1.1835136479621668e-19  5.6104763415505633e-20  5.9859478171377287e-20  2.0962559472182447e-19  -1.6030832274755349e-20  3.1006760175564901e-20  1.5637447036374890e-20  4.2115252745939391e-20  4.3443486136286672e-20  1.3996546028813362e-20  -3.4355819318044420e-20  3.9441143317456846e-20  -5.1310269322019649e-20  4.2754779234371313e-20  -4.4448102748993169e-21  -7.4701768741938063e-20  1.1974642661777734e-20  -3.5005961401317729e-21  -5.0382211054211655e-20  2.2718668752242718e-20  3.8285972123763918e-20  -7.6188854337937075e-20  4.5663552991076972e-20  5.0769054322381300e-20  -7.4433184983146795e-20  1.9435684052298139e-20  2.7594072861770660e-20  8.3985819089250624e-20  -4.8239816129831893e-20  -5.2265836942042999e-20  4.9548746481298082e-20  8.0323243794856538e-20  -8.3378447572904347e-20  -2.1405682188084434e-21  -9.0178713302627196e-21  3.7037776740078072e-21  2.2567356196188552e-20  -5.1198318052101973e-20  7.1357252054098436e-20  2.1246133235835287e-20  -3.8385444581939207e-21  5.5660549210871906e-20  -1.2507615055470492e-19  -3.0464243302345484e-21  -3.7561843400482074e-20  1.0581529608839063e-19  -4.2259464936469642e-21  -7.8236887148268852e-20  5.9434207044270490e-20  9.7125250293633162e-20  -8.5912388906224289e-20  7.7331950336655698e-20  -3.8232638821479731e-19  -9.1433011028590834e-20  7.9075793722298744e-20  -4.8270285656498469e-20  -8.2656057980334496e-20  -6.8762296600993624e-20  8.9428387308792977e-20  1.0719462847396567e-19  -3.1449803692971072e-20  -6.2691021441919106e-21  -4.3997726576910428e-20  -5.7160229730128653e-20  1.0174621357238994e-19  7.2615318440042548e-20  -6.8698420753335433e-20  -1.0548149788153565e-19  7.2726205372714341e-20  -3.6837723474573522e-21  7.2539828907278903e-20  1.5253291496587137e-20  -3.8778718066427146e-20  -2.4054730892510090e-20  7.3988498622990200e-20  -3.7392877001772327e-20  -2.9679055422646694e-20  5.7997627997541443e-20  -1.6296504799081815e-20  1.1205258186953095e-20  -6.2762917150487507e-20  -8.5980870052875835e-20  9.953763308