<?xml version="1.0"?>
<VTKFile type="UnstructuredGrid"  version="0.1"  >
<UnstructuredGrid>
<Piece  NumberOfPoints="2446" NumberOfCells="4585">
<Points>
<DataArray  type="Float64"  NumberOfComponents="3"  format="ascii">0 0.41 0  0 0 0  2.2 0 0  2.2 0.41 0  0.2404508497187474 0.2293892626146237 0  0.25 0.2 0  0.2404508497187474 0.1706107373853764 0  0.2154508497187474 0.1524471741852423 0  0.1845491502812526 0.1524471741852423 0  0.1595491502812526 0.1706107373853764 0  0.15 0.2 0  0.1595491502812526 0.2293892626146237 0  0.1845491502812527 0.2475528258147577 0  0.2154508497187474 0.2475528258147577 0  1.1 0 0  1.1 0.41 0  0 0.205 0  0.55 0 0  0.55 0.41 0  0.275 0 0  0.275 0.41 0  1.65 0.41 0  1.65 0 0  0.8250000000000001 0.41 0  0.8250000000000001 0 0  1.375 0 0  1.375 0.41 0  1.925 0 0  1.925 0.41 0  1.5125 0.205 0  1.7875 0.205 0  0.6875 0.205 0  0.9625000000000001 0.205 0  1.2375 0.205 0  2.2 0.205 0  0.4687002074688797 0.2068568464730291 0  1.99375 0.2152743902439024 0  2.0625 0 0  2.0625 0.41 0  2.2 0.3075 0  0.4125 0 0  0.4125 0.41 0  1.7875 0.41 0  1.375 0.1486128048780488 0  1.5125 0 0  1.7875 0 0  1.5125 0.41 0  0.8250000000000001 0.2613871951219511 0  0.9625000000000001 0.41 0  0.9625000000000001 0 0  0.6875 0.41 0  0.6875 0 0  0.1375 0 0  0.1375 0.41 0  1.2375 0 0  1.1 0.1486128048780487 0  1.2375 0.41 0  1.65 0.1486128048780487 0  1.126715909090909 0.2793064024390244 0  1.676715909090909 0.2793064024390244 0  0.8517159090909092 0.1306935975609756 0  1.348284090909091 0.2793064024390244 0  0.34375 0.3032389320646208 0  1.894702181800738 0.1282910975492754 0  2.092797818199262 0.1282910975492754 0  1.85625 0.3075 0  0.61875 0.3075 0  0.61875 0.1025 0  0.3648540804333487 0.1240075933101478 0  0 0.3075 0  0 0.1025 0  2.099172119769978 0.25625 0  0.48125 0.09238439620688085 0  0.5781001037344399 0.2059284232365146 0  0.48125 0.3196743479159776 0  0.7265881057911006 0.3055240343720796 0  1.99375 0.08395950269330846 0  1.459960956013612 0.3075 0  1.569025960719943 0.2986889805672169 0  0.75625 0.08213100772579164 0  1.03125 0.3278689922742084 0  0.923871252904788 0.3078247185783941 0  1.959375 0.3126371951219512 0  1.749222215368287 0.1025 0  1.275777784631713 0.1025 0  2.2 0.1025 0  1.225938124459196 0.3075 0  1.550777784631713 0.1025 0  1.000777784631713 0.1025 0  1.44375 0.07430640243902442 0  1.16875 0.07430640243902437 0  1.899250267340833 0.2229966846119207 0  0.1020898364287272 0.3140258291809757 0  1.766482954545455 0.2934032012195123 0  0.3405058858996321 0.2119987970531874 0  0.7710785630958338 0.1710968191298857 0  1.046078563095834 0.2389031808701144 0  0.2 0.3400647632937836 0  1.421109702350723 0.2261157654379721 0  0.2800464974185557 0.08982544815605742 0  0.098916018031319 0.09171660955420841 0  2.13125 0 0  2.118919042110979 0.3422084711244843 0  1.30625 0.41 0  0.89375 0 0  1.597888256393107 0.2173787389261347 0  0.20625 0 0  1.829299675393195 0.07400700849299596 0  1.71875 0.41 0  1.16875 0.41 0  2.038220665644273 0.332420740103091 0  0.34375 0 0  0.417496017710808 0.2696595573092803 0  0.2 0.07687845740457822 0  0.9295982307099278 0.1343158415898188 0  0.07390688010811153 0.1697064032433452 0  0.5238366813727013 0.2578302467013575 0  0.05452951551825875 0.25625 0  0.5229630068078351 0.1548816096928243 0  1.452769549894695 0.1548122580621249 0  1.369219062229598 0.07430640243902442 0  1.30625 0 0  0.8504409521244898 0.3356935975609756 0  0.8821881244591965 0.205 0  1.720943423819132 0.1714577452753128 0  1.157188124459196 0.205 0  1.094219062229598 0.07430640243902437 0  1.03125 0 0  1.304056576180868 0.1714577452753128 0  1.67579304192913 0.07430640243902437 0  0.2751941921308361 0.3346083473122598 0  1.209670467133757 0.1362100266964769 0  1.025335513626278 0.1700681449722324 0  0.7562500000000001 0.41 0  1.58125 0 0  0.7567170593862014 0.2409196493502535 0  0.6926714215682891 0.1272249611432207 0  0.4139715849905988 0.3397932387114203 0  0.9840787304190477 0.2717749043358119 0  0.06875000000000001 0.41 0  0 0.35875 0  0.9281250000000001 0.06276726142697993 0  0.5507396469029935 0.3219409231578227 0  0.5504468037989405 0.09136885600634273 0  1.58125 0.41 0  1.631724228912893 0.3381867502687533 0  1.825608881788174 0.14499488549201 0  1.85625 0 0  1.44375 0 0  1.44375 0.41 0  1.85625 0.41 0  2.13125 0.41 0  0.7562500000000001 0 0  0.89375 0.41 0  0.4812500000000001 0 0  0.34375 0.41 0  0.4812500000000001 0.41 0  0.20625 0.41 0  0.06875000000000001 0 0  1.16875 0 0  0.61875 0 0  0.61875 0.41 0  1.03125 0.41 0  1.71875 0 0  1.99375 0 0  1.99375 0.41 0  1.340625 0.3489494290853124 0  1.134375 0.3489494290853123 0  1.700180620188976 0.3438659752031281 0  2.135782184673599 0.07126652247502523 0  1.668441847249787 0.2129203728327609 0  1.295782514339747 0.2378437748815763 0  0.8233075729931248 0.06842334294821524 0  1.409375 0.3520314716057996 0  0.403505597322782 0.182067236678212 0  0.378125 0.05794951541303489 0  0.3043468223249023 0.1518321115979534 0  2.129248544730567 0.1906135162504124 0  2.060771381434487 0.1989445750470348 0  2.013252586573865 0.1496169464686054 0  1.942766402200229 0.1734448904596831 0  1.895522487186454 0.06076163953489683 0  2.069553871656643 0.06605731020975725 0  1.274680914880868 0.3520219391081363 0  1.614713220494657 0.09473434380863296 0  0.7899021319497519 0.3149123934144827 0  0.69518737419149 0.0634051089053758 0  0.2971740475496061 0.2592172353407536 0  1.72990325744076 0.2380068107952482 0  1.356580098625191 0.2120393231351682 0  2.034370752044885 0.2668681600792073 0  1.51768709249349 0.3426260931494756 0  1.561883724969884 0.1650446847858835 0  1.197344062229598 0.2523725417393646 0  1.804085235518364 0.3468178408964637 0  1.817887819205233 0.2589243285818559 0  1.905897727272727 0.3485060975609756 0  0.6719798073392919 0.2688965171178177 0  0 0.05125 0  0.653125 0.35875 0  0.6396896119294488 0.1627615407790282 0  0.4274150154087412 0.1242548552168279 0  1.192836486056382 0.3562350748565544 0  0.8279124365364005 0.183856489168822 0  1.097485222388854 0.2083571153401724 0  1.28257088594801 0.2944411014911587 0  1.474860187679412 0.2504218616229368 0  1.406767003493824 0.2829282258560709 0  0.446875 0.04619219810344041 0  0.515625 0.04585361801037557 0  0.592043440706648 0.05125 0  1.845656689180403 0.1998310418452388 0  2.144958525570388 0.2909790873294231 0  0.6171090763650112 0.2492366900333857 0  2.2 0.15375 0  0.5145586920831158 0.3648371739579888 0  1.57794966442982 0.3540357145964566 0  0.721875 0.3633107922168974 0  0.0496154796471391 0.333125 0  0.5843750000000001 0.3662560860076676 0  0.5810878747760798 0.1474002776121195 0  1.508991196088596 0.1421783375065625 0  0.8840670607017558 0.2640994375393898 0  0.09776612425612034 0.2204896805326566 0  1.50436820029908 0.06143401634903343 0  1.223857000523521 0.0823554862453532 0  1.153316824384777 0.1289850171317837 0  2.148922302309752 0.1258841779285271 0  0.309375 0.04312325590431198 0  1.621993280276081 0.2841214267927899 0  1.550118654119087 0.2461998729100966 0  1.327182649291491 0.1216967252533594 0  1.051977450479407 0.1221382572915816 0  1.753125 0.04556020050186112 0  1.271875 0.04556020050186116 0  0.9816084133102366 0.05126138213476004 0  1.039051841454368 0.0572224914831029 0  0.9719230514536006 0.3480477870845102 0  1.94956388244759 0.1180512551534177 0  1.949997712993411 0.04965831614304109 0  1.771961817615021 0.1530278789497521 0  1.909246823951428 0.2812757146784527 0  0.2459536687882397 0.04668633953831142 0  1.948575539857022 0.2445328248721197 0  1.697271520964565 0.1233917627620729 0  0.7964897648514618 0.1211426571931604 0  1.065625 0.3689344961371042 0  1.085849084308977 0.3170853572226867 0  0.4702981435440001 0.260434880697798 0  1.577403511714593 0.05463601888079143 0  0.05622663515370135 0.05493816910862376 0  0.3267207591099919 0.3566194660323104 0  0.9003051618565143 0.3564049499960621 0  1.751571320346033 0.3651102912045228 0  0.1583785085108421 0.2994699345738728 0  0.1455283439499995 0.3542795598723423 0  2.2 0.35875 0  0.2347662494194072 0.298325008655211 0  0.1527284455616188 0.1065771775690181 0  0.1382139529076665 0.05427454456341477 0  0.8749341636311069 0.05110114999892954 0  0.643661668713109 0.05693499781019222 0  1.466879772203159 0.3611261772912453 0  1.990280163552011 0.3564754268533217 0  1.17471064520912 0.2990917256188288 0  0.5202693090594349 0.206382495511728 0  0 0.25625 0  2.2 0.25625 0  2.2 0.05125 0  0 0.15375 0  1.853978576207987 0.35875 0  0.9787513713939683 0.1487523696999336 0  0.240625 0.3722153812029779 0  1.515638456102889 0.2882700110184686 0  0.09048297387599738 0.3637717362208066 0  2.150453692751374 0.2387066338105111 0  1.323782677156475 0.04897634338873398 0  0.8074131292871642 0.3624701995505916 0  1.409375 0.03715320121951221 0  1.406484531114799 0.1087852750766809 0  1.134375 0.03715320121951218 0  1.627401732573545 0.04552157221025036 0  0.1170173172005315 0.1427610859166811 0  2.045405893604797 0.1105340662939892 0  1.255408269734577 0.1577307500159216 0  2.028125 0.03707597992059326 0  0.4743610090857199 0.1421513964721819 0  0.9354010469015898 0.250631300585664 0  0.04420832937638274 0.128125 0  0.8922386349349938 0.0992956419364831 0  0.1197849154434487 0.2663398672460083 0  1.248258025468107 0.2565907092181813 0  0.3746885856929528 0.370723531618974 0  1.203125 0.0366132337404304 0  0.5724622277005015 0.2751253816079333 0  0.3365425205162783 0.08395777655057959 0  2.072662025974815 0.2975086504196739 0  0.4581080832182547 0.3648371739579888 0  0.3874522734668214 0.2295447548840689 0  0.7827853612484443 0.04106550386289586 0  1.887722846421017 0.1760882698830035 0  1.472640588990488 0.1118278026240017 0  1.865937103925594 0.2604137786483804 0  1.463913572748262 0.2030442564990043 0  1.376426316059077 0.3186741374914345 0  0.6641993820150034 0.3141688596240831 0  0.2943117490824315 0.2130987422685822 0  0.3478153998082709 0.1666571081082676 0  0.3427990510599805 0.2575950027870776 0  0.7997118993855807 0.2216171933356366 0  
[...]
<PointData  Scalars="f_9-1"> 
<DataArray  type="Float64"  Name="f_9-1"  format="ascii">3.2379185724015281e-04  2.3052645374684218e-05  1.7352556023823872e-07  2.5671969863661927e-07  1.8485125404998355e-03  1.3216373092557329e-03  7.0821112543377701e-04  2.2363731436823264e-04  1.1574147818678078e-04  1.4609349498507932e-04  2.1992672675845811e-04  5.0765329413802432e-04  1.1911826907831393e-03  1.8060715998834927e-03  3.8155558666007420e-04  1.9355276535311706e-03  1.2738702584473167e-04  7.1749825964703486e-05  3.6807433996672162e-03  3.2309073767684613e-05  3.6667833726173687e-03  1.6014990632105212e-04  7.0431047400509289e-05  2.8928131893974584e-03  1.6416463267426178e-04  2.7564222048035597e-04  9.0846680134084082e-04  5.6266488770414993e-06  9.3202868064091484e-06  9.3724957146461350e-04  2.1956002968093354e-04  1.9137682531406590e-03  1.4118692032966528e-03  1.8450434723164531e-03  2.5475368887828513e-06  1.6529256411091718e-03  3.1653833579420689e-05  1.0271060958747007e-06  1.5099328583687470e-06  1.6432443305655790e-06  4.3421026132550086e-05  3.8323854523044667e-03  4.3299307169137694e-05  1.1824718923294135e-03  1.6346470566811630e-04  2.2568066459094943e-05  4.3268004875956004e-04  3.1774847319823107e-03  2.3852584726143161e-03  2.7729977628075669e-04  3.3897094023676790e-03  1.4199646998840220e-04  2.5609564628155810e-05  1.9386249401162547e-03  3.7022963288687444e-04  7.9251961967182047e-04  1.4689957429714338e-03  4.0034075161771398e-04  2.0728748057194371e-03  4.6578938392157144e-04  1.2517756865368680e-03  1.8466538861535171e-03  3.4408111808248115e-03  5.7739526454642423e-05  6.5007003154431776e-06  9.5293869217930838e-05  3.0609873985148646e-03  1.6998999476230931e-04  5.1592923090337253e-04  2.2249954266043837e-04  4.7338157954336195e-05  8.5478511923393603e-06  2.0433031558139667e-04  7.1900751800914764e-04  3.5364437852086891e-03  3.3550120803197163e-03  1.2219074055082451e-05  1.1922692535750530e-03  7.8524199770118425e-04  5.4654994942972095e-04  2.3749440579010016e-03  2.7093366632471782e-03  3.1275590779480703e-05  1.4681328034402049e-04  9.2048876151831554e-04  1.3042296599984677e-06  2.1340893187503378e-03  4.2652963249105555e-04  3.6851742504039612e-04  4.5456793019056369e-04  6.2264148068001300e-04  8.5445241090802141e-05  4.3338108262887818e-03  2.3141051985515329e-04  1.8538029407608177e-03  2.3891141693640609e-03  1.4065994552290636e-03  4.6448558850552919e-03  1.3943647172121158e-03  9.3662337835780061e-05  4.6073205583326754e-05  3.6802722967341422e-07  2.7495386969935937e-06  1.1960265606717449e-03  2.0448677531166641e-04  7.0860551424260299e-04  2.8936540906611208e-05  5.3324932323629865e-05  8.8409832415923978e-05  1.7138637945092535e-03  9.3860757280627447e-06  3.6826822313260592e-05  3.0459573467212283e-03  5.3610441006814979e-05  7.4868223902665304e-04  9.2632565206830764e-05  2.1984289131483691e-03  2.0384700535361314e-04  5.0868975476151305e-04  9.2124829805294230e-04  5.6071668053880755e-04  3.2297083477506418e-04  3.0646005592781479e-03  2.3171737188855453e-03  3.0695283555860086e-04  1.4536997948495082e-03  5.1480477058576046e-04  3.4367404761084932e-04  1.6164484232028338e-03  1.6289471659804378e-04  4.1555197482445860e-03  1.1547170042067202e-03  7.0287574210072391e-04  3.1385797529646644e-03  1.1270952089250316e-04  3.0370434112088588e-03  8.0928242070411546e-04  3.7879800504010616e-03  2.0595787721447512e-03  6.4793909681235841e-04  2.6924944603557924e-04  2.5197043273547475e-04  3.3331825286586855e-03  1.3176990661992974e-04  2.7118596308647836e-04  4.1433807866837270e-04  1.2189535779218935e-04  1.1549035789940199e-05  2.1582368322889774e-04  6.5100131930754526e-04  2.1569088414369443e-05  5.5647538872464988e-07  1.5609765946926634e-04  2.6316059651941164e-03  5.2353823807678919e-05  3.8336052083471840e-03  3.7640341960583851e-03  3.1012255947099805e-03  2.3683782964550846e-05  3.9189780917876571e-04  1.0559432963238408e-04  3.5741961669244512e-03  2.1518676539945395e-03  4.1365937054630255e-05  2.3385852441587795e-06  4.0152678578928279e-06  1.4729134088348262e-03  2.0977166358880951e-03  2.3986939266260103e-04  1.6592402373237272e-06  4.9337414090843269e-04  2.0328076885176355e-03  3.7001755352209019e-04  1.1264691485812488e-03  1.5973582573236278e-03  7.4028132036951173e-05  7.6693038985243178e-04  5.8222631088900120e-06  1.4104242488759406e-05  1.9867594476610823e-05  4.8643650697895565e-05  2.2833829909026205e-05  3.5364215719915428e-06  1.7034496416638144e-03  2.9411321095289662e-04  3.3191189081698291e-03  2.6608123214004903e-04  2.3110898666755084e-03  3.4897964416042137e-04  1.6949946753673734e-03  1.8386212806325763e-05  7.5106086875845147e-04  6.5497350789643313e-04  2.0339783419244160e-03  9.5801598453144272e-05  1.7424858864851213e-04  3.3588527026539507e-05  2.6697372713438850e-03  2.9004429956883179e-05  3.5195142228937734e-03  5.9654937888395951e-04  5.8942377449325344e-04  1.9074041118175300e-03  2.5209946321863679e-03  1.1830167844887689e-03  2.0681209257143677e-03  1.1924084595794837e-03  1.5252679432842199e-03  6.6802143140505351e-05  7.1201742820766796e-05  9.2357162556452698e-05  1.3405583733840058e-04  3.8287437993777170e-06  1.7602671158838464e-03  2.1005949004653095e-06  3.6960642713116769e-03  4.8313471468296610e-04  3.3649125320797902e-03  5.1986830717006688e-04  3.6027921187721020e-03  2.7353006210340382e-04  6.9570774958092614e-04  2.7889481709246866e-03  2.3107028666009569e-04  3.1713719246960264e-04  7.1855016033978017e-04  9.1944964236343330e-04  3.0709010484781714e-06  4.4190285509166272e-05  6.3349486172046480e-04  9.0941443672128380e-04  1.0659132099065849e-03  5.1476024953219575e-04  5.8671725275542262e-05  4.7409078800157765e-04  2.9425592676844909e-04  3.8193323666998075e-04  2.5350312544988600e-03  3.0521408362951643e-05  1.0078291086572275e-05  1.9475787084675443e-04  6.8400618059979656e-05  4.0785404755078571e-05  5.1314027797833605e-05  2.5327161770467111e-04  1.2859504599521503e-03  2.1689309458040162e-03  2.2573492805815776e-03  2.8176614688857388e-03  2.0949634402272121e-04  3.0648851659345344e-05  3.9560925047658207e-03  2.7849073098942475e-03  1.1284127542710435e-04  5.1225262120269755e-03  3.7459118237752145e-03  6.6705218267242071e-07  3.4832001685562333e-03  6.4791373720612748e-05  3.4530176726530548e-05  2.2613511801754092e-04  1.4493646744453864e-04  8.0980972197255475e-04  1.0917711248265942e-05  2.1939740535543290e-03  1.0136145069351318e-03  1.9134518715687246e-04  2.4015049265431015e-06  4.9055012295702550e-07  7.9387442145903810e-05  4.8314352981895163e-05  6.4785663619445024e-04  3.8048173624993437e-03  1.0174227320755560e-03  1.3304694050013579e-03  4.5204887744530554e-06  4.5396673390301067e-04  3.1000394382092603e-03  3.2170244241481137e-04  7.4478009789848219e-04  4.4457341120966287e-04  1.3883957466650793e-04  7.9544902041581169e-05  9.6901587194527491e-06  1.4921480358016047e-03  3.0072043954601385e-06  6.7534780742402117e-04  2.1955081374668895e-03  6.2042719150966493e-05  4.8630897359844548e-04  3.1092812120644838e-03  2.1337403487708471e-03  3.8796587093860840e-03  4.5535826221839809e-04  2.3219487926894240e-03  1.1958758554567613e-04  9.4030076332314217e-06  3.7821409825383786e-03  2.3610311204501273e-03  2.3528982134200159e-04  8.4622281065712998e-05  6.1906583485676935e-04  1.1321954114698630e-04  1.1100125768095177e-03  1.5482878619353276e-03  3.2860746036044719e-03  1.6193964301441314e-03  1.2091764338967124e-03  2.4774507225031588e-03  3.0241788450518486e-03  3.4043609833072275e-04  2.5333939812075110e-04  1.1087555395758209e-06  1.8909185704722906e-03  1.2250562100225703e-03  1.3810373028013071e-03  2.0431500240456033e-03  1.6895379844064225e-03  1.3800419151468932e-03  3.2082628015035747e-04  2.5061050519396054e-06  4.7364340635810547e-04  1.2443516387220807e-03  2.7083651375717187e-03  1.4861240401518565e-04  1.3136149804630190e-04  3.1402857167915770e-05  1.7887114578293709e-06  9.2258784377190527e-07  3.1223264342285601e-06  2.7427354477630178e-05  2.2692607323105473e-04  2.0953361294167571e-04  1.1925378337152583e-04  2.0408227044058659e-05  2.7236367131946810e-05  1.6538623414520312e-03  1.4747847091864581e-03  1.8968767229602377e-04  5.4958545303661159e-04  3.4692065169485679e-04  2.7595999594911824e-03  5.4163134560686862e-05  8.0105258847709915e-05  2.2671956301874149e-03  2.3355354547610605e-03  4.8207034474892949e-07  6.9570245056992819e-07  3.8538440904315239e-04  2.9959936314464793e-04  3.2143129160907432e-03  1.5404047142705075e-03  1.6261472599294064e-03  6.2175540895187625e-04  3.9327430351310074e-05  5.1065610970242802e-05  1.3654656468281104e-04  1.3879499633456938e-05  2.1974849578142428e-03  9.0169259407481752e-05  3.0291907111219207e-05  4.0168222820579236e-04  2.3371665042429656e-04  2.2262919395599356e-04  3.0942314626703480e-04  1.6034176602315820e-04  2.6143615183341494e-03  1.2235211981293114e-05  2.5122342578124887e-03  8.1042633287807878e-04  1.7013500698752938e-03  8.4591061217829546e-06  2.7503776049570304e-04  3.2878197281046492e-05  8.0674090694109267e-04  1.2509998482683803e-03  7.7506880087709290e-04  3.2839752763341138e-03  3.4846746357264698e-03  3.5131700653354397e-03  2.6192820840118128e-03  6.6603413082179982e-04  2.8657315445597131e-03  1.6343661909052171e-03  1.0821592178697186e-03  1.0798238458499215e-04  3.4591678026606096e-06  1.8534759214977549e-03  5.7564106775811596e-06  3.1086315835718373e-03  1.4257170788045059e-05  2.2337923821757736e-05  8.1844472050114934e-06  2.4358331268808652e-05  4.8912956480112475e-04  1.5471670270654286e-04  9.4428603048027907e-05  2.7937839667697539e-04  2.3247812955602917e-05  2.9403152003588044e-03  3.3811504119759324e-03  3.2525709042682691e-04  4.2981880385043571e-06  1.0147893716527980e-03  1.2169436945184972e-03  2.4292900382771455e-03  1.6128511737184734e-03  7.4064478540440795e-05  4.2396088415756110e-03  8.4599049798825119e-05  5.8689839878285123e-04  2.5778846156583003e-03  3.4592919590190393e-03  9.0033806692096506e-04  8.8436026541328493e-05  2.0166906088431606e-03  5.4119147173023734e-04  6.6216742771678364e-06  1.3440542331594634e-03  3.8773955364601706e-03  3.3503451759313877e-03  1.0455660611035536e-03  3.7793858799431415e-03  4.6996006914431463e-04  9.1716967527629215e-04  3.4467853792131097e-04  4.7183514205209376e-04  3.6819195726027303e-04  3.0663650798679193e-03  1.2532530849520573e-03  2.8521723004201597e-03  1.8211502992187599e-04  1.9603571081252503e-04  2.9163954769663273e-04  1.8875561571858380e-03  2.2612454367745632e-04  1.2728624051883718e-03  8.6495972413725797e-04  3.6349028535497354e-04  6.1344765405513702e-04  3.5327810422267888e-04  1.3921894462147963e-03  3.0733286437917200e-05  6.7450517002944592e-05  3.8604925741661787e-03  8.3989361156896277e-04  1.1022986829922205e-03  4.4279670201574109e-05  4.4346708456762503e-03  6.0324725021605036e-04  3.9457985844298693e-04  2.8365013581703241e-03  8.6472712997987658e-05  2.3166804674301647e-03  3.6612619082493095e-05  1.9297492309950138e-03  2.6682444750322423e-04  6.2077922119584833e-04  4.9005526783996698e-04  4.6199648285122152e-04  1.6268171772713516e-05  3.3704751353596891e-03  1.4029706862006181e-05  2.1699387078926393e-05  7.3422333374790257e-04  1.0232855548764836e-03  6.2142439197766974e-06  7.1176276517038233e-06  3.7952397412086926e-06  1.6166393033023845e-04  2.9092507554407602e-04  1.0158723931594676e-03  4.9981183036211583e-04  9.2942387706889220e-04  1.5677479228908030e-04  4.9675717196784471e-04  2.1674183775312089e-03  2.5873106790011028e-04  2.1692707173510617e-04  1.7889590511126598e-04  1.9945451138231530e-04  1.6555415301089472e-06  3.5187960807137801e-06  3.3149107694971900e-04  4.6727017143236322e-05  1.4542950272658060e-06  3.2484682669423550e-03  1.7865077537459002e-03  1.9090394297332147e-03  8.1707279108972204e-05  1.7326142886968151e-04  1.4108778108153906e-03  5.3832772278918009e-05  3.8349162014723694e-03  3.8277091547856730e-04  1.3613068652551180e-03  2.4741364411774111e-03  2.1175550905986498e-03  1.8716029254813905e-03  1.8267567607332916e-03  1.3977500390152493e-03  1.0398477764181331e-03  1.1256715092431463e-03  2.2047910315929758e-03  1.1745029699021898e-03  5.2544724881930384e-06  1.5880503381127623e-03  3.0159517067200824e-03  3.6168421968013043e-03  1.8270711899655730e-03  9.4408959541037872e-04  5.5116327497495233e-05  3.9470257576510603e-05  3.5135657284504052e-03  2.9290285238664513e-03  3.3565928176720193e-03  3.4769127326428483e-03  1.0883336037879949e-04  4.4167635409700904e-04  1.7537941762853721e-03  1.3143256154110369e-04  2.6035401732279003e-04  1.5719544017243805e-04  1.3807205580958918e-03  1.1681130440369125e-04  2.9190989757747125e-05  1.9589432733026978e-05  4.0611366797451910e-05  1.3288607207276885e-03  1.9674616975263451e-03  4.4555440766656372e-04  6.0258325004849142e-05  3.0212106306640082e-04  3.6772395568026889e-04  2.2602744548312148e-07  5.9292411452969024e-07  3.9026577728619287e-04  2.4895197456700850e-04  5.3595063562681398e-04  6.3295614993289377e-05  2.0438600826460642e-03  3.2084489835566016e-05  3.2705385320859455e-03  7.6758437882341955e-04  1.5355791758935763e-04  3.4817397345464857e-07  2.3967341864698791e-04  3.8472814203948428e-03  4.6861172744353304e-05  3.8033025113022494e-03  2.4437602810855272e-05  3.4553624820531830e-03  3.0314572503000822e-05  1.1858615035400628e-03  1.2470115135912503e-04  1.5872537351639955e-04  3.4219820543326575e-05  3.6334883209161637e-03  3.7236921315256795e-03  8.7406160294151036e-05  5.9979041784290820e-05  3.4925015087747023e-03  3.1291331978322600e-04  3.8056348679213568e-04  8.9360494473075466e-05  3.6079321329975408e-06  3.4871934299036489e-04  1.5437422205718510e-06  5.9694674891364158e-06  1.3029378986778529e-04  1.5160686751379147e-05  4.7256249489205273e-04  7.5947218286529568e-04  1.1788650560614858e-03  2.1439230192454590e-04  1.9070182562338452e-03  2.0145077155096160e-03  2.1154839150819950e-03  8.3722287264831232e-04  1.0032610489894218e-03  1.0149371263606833e-05  2.2323374603030349e-03  1.1012909951192242e-03  8.2207137008735156e-04  4.1915646280188558e-04  6.2718570453825078e-05  3.8824147744640603e-04  6.5636102377502288e-05  2.0186254002970963e-03  8.6359113306213429e-05  5.1742111129528289e-04  1.8465809956361202e-03  4.6227343372277589e-05  5.7624974668718542e-04  3.2256955347317972e-03  2.0466716441985161e-03  2.3883039439159715e-03  1.5666851189076022e-04  3.4717717133307532e-03  1.2776837333921702e-04  3.5688206972881464e-03  1.8056707966384679e-06  4.7383076805823774e-06  4.1012085247681720e-04  3.4510200559681723e-03  1.4744434819002725e-03  1.3064862668548918e-03  1.9370043640904273e-03  6.4547052121243130e-05  5.8726609434454040e-05  1.8761851842542033e-03  5.3348249037781662e-06  4.1308540739944295e-05  2.8023909578526584e-03  3.0703025802936330e-03  2.3986241003912095e-03  1.3948761872803460e-05  5.2654129151803829e-05  1.0745395760363267e-03  8.9940282790234869e-05  3.5820540979679763e-04  1.4412614746083709e-04  1.6428726981621965e-05  3.2529576405708965e-06  2.6161322322937195e-04  1.0875170178019466e-03  5.0816118405553473e-04  9.3922812190343555e-04  2.6754555868538652e-03  3.1978747314077703e-04  2.0313547570740444e-04  9.7240775696249215e-05  1.6887149864754025e-05  2.0348166036639899e-03  3.7308506954055631e-04  1.8817018919936573e-03  2.9414728336659801e-04  2.9028520979158659e-05  2.6171686059727942e-04  3.0984021419585471e-04  7.7850575665341904e-04  7.8747040813871669e-04  4.9283014750042309e-05  7.5080951942585830e-04  4.7492108248301407e-04  1.7407995382577373e-04  1.0373389711391720e-03  2.4109686941750708e-05  3.3183542469943598e-03  2.7165642605559369e-05  1.5655650887029041e-03  9.3407462593395843e-04  1.4952296155870494e-04  1.8847202350737247e-04  4.5670945857636576e-04  2.1272251607165108e-03  6.3007562280991249e-04  3.0155948798334575e-04  1.0888653182251210e-04  2.0287253810699875e-03  2.1697983669851295e-03  1.7816641494762006e-03  4.5201175829171414e-04  3.9689719720100190e-04  2.0135231441336613e-04  1.3567882509644749e-04  9.5038887380816652e-06  2.1200314560098959e-04  7.1881603397679153e-06  2.4575895932520872e-05  2.5598883531026568e-05  6.1859884537373286e-04  3.6895092028251927e-05  1.8737068059212930e-03  3.1489634438836892e-03  3.6978275532070707e-03  6.3371047103010273e-04  3.1801108129490092e-05  3.7372371954591814e-03  3.3033823520710330e-03  2.2243713791277716e-05  2.7244264988158583e-03  1.1724296649859214e-03  3.9704404786520672e-03  6.7626107428531634e-04  3.3078760010801286e-05  2.6205591738353313e-03  1.5585047624195152e-04  2.8695304442730527e-03  4.3559828415136728e-05  2.4619288049670041e-06  3.3651254432388233e-03  3.0662263115180711e-05  2.0231490806947375e-03  3.7490739441456156e-04  8.9372867619760390e-05  2.5437473909643585e-06  2.0591819837714135e-03  1.0458799789219832e-04  9.4056457980699957e-04  1.2380952015077181e-03  1.9471604369520931e-03  5.6814023717199034e-04  1.2526163435595183e-03  9.3932506307756865e-07  1.6415146766929130e-03  1.2648053919196031e-05  3.3992089994663291e-04  3.9311686652145966e-03  5.9029811852831602e-03  8.6507227083278536e-05  2.8160190615308888e-03  1.5279395997977758e-03  1.2540881807371904e-03  1.2100692589297021e-03  1.0695112637293758e-03  2.6946212579758181e-04  6.1714278862391592e-05  1.8561634206957229e-04  3.5741561097570008e-04  2.4582681040438300e-03  2.8104898007769406e-03  2.6252669923341240e-03  1.6937581196682142e-03  1.4646548239393234e-03  3.2901836711183002e-03  4.4865875855996316e-04  1.0356496757505015e-04  2.4707306054167297e-03  2.1469132245533927e-03  2.4112832410525904e-03  3.4195201475986548e-03  1.7118012102311096e-06  5.3553894781128396e-03  2.1531755465772663e-03  2.1214537971747183e-03  3.0018864669104648e-03  1.4194802337569585e-03  3.2391731422992788e-03  9.6853050375428427e-05  3.0352273392006785e-03  2.2244030511120337e-03  1.2012279867387453e-04  1.3519836356139373e-03  4.8277155497821171e-06  3.6121416669260471e-04  3.0290589361293870e-03  8.5506731715883621e-05  7.9546167718448700e-04  5.0832138278178733e-04  1.2219133940154505e-04  1.6803503673613995e-03  1.0189256272759811e-03  9.2753295072524748e-05  2.4093784001263385e-03  6.4609488429101191e-05  3.1626440458505613e-06  5.5449558571327535e-06  2.3135503842601977e-06  3.6998371565214391e-03  1.1075554531316637e-04  1.9294215206854716e-05  6.1901248347533090e-04  3.8943220234102951e-04  4.4988719452778125e-05  3.3898325506950630e-05  3.9823395591073572e-04  2.2276550703626426e-03  1.0336740819846455e-03  7.8332222762692613e-04  7.2749155711319900e-05  1.6664509104602153e-03  1.9624200097025694e-03  2.2813937168612267e-03  2.2828522605797363e-03  3.2822617262166166e-03  3.7537737636261759e-03  3.7033186323115644e-03  6.3538287398965461e-04  3.4272671356562187e-05  4.2088549849249635e-05  2.5763621700083264e-05  2.4832802614823215e-03  3.5541215885241877e-05  5.3271664419650379e-04  3.8451747082796891e-03  1.9522881675132122e-03  2.3521569286244646e-06  1.0209952304989246e-04  1.5117252154404562e-04  6.4472616542836023e-04  4.0635595459290175e-04  2.6244869262901141e-03  3.8676270268903368e-05  3.3681671163823514e-04  2.6398931518715153e-03  2.3928226706247576e-04  2.3795167390708309e-03  6.0178372674236088e-05  4.4889515193006261e-05  4.2212424770766400e-05  1.0138751607177838e-05  2.9921916700311885e-03  9.4657735187983884e-04  8.6183621086478727e-04  8.0976418240048180e-04  1.6738438115398548e-03  6.5149744755698704e-04  5.1589748566009870e-04  1.7141081427993324e-04  3.6613300668481802e-03  9.6520061874264017e-05  1.5754481466431585e-05  6.9101945392743312e-06  3.7912502189017946e-03  1.0427116495371478e-03  1.8073907880877070e-04  2.6394235227151560e-03  1.7729003815920505e-04  1.7250653533229091e-03  1.3696834460812011e-03  1.2294866352930494e-03  6.5713180904462674e-05  8.0470445374409601e-05  3.7589366342836074e-05  2.0367462057203248e-03  7.5462987803173709e-04  3.1860025315854751e-03  4.4800767783660406e-04  9.421705366560482