<?xml version="1.0"?>
<VTKFile type="UnstructuredGrid"  version="0.1"  >
<UnstructuredGrid>
<Piece  NumberOfPoints="2446" NumberOfCells="4585">
<Points>
<DataArray  type="Float64"  NumberOfComponents="3"  format="ascii">0 0.41 0  0 0 0  2.2 0 0  2.2 0.41 0  0.2404508497187474 0.2293892626146237 0  0.25 0.2 0  0.2404508497187474 0.1706107373853764 0  0.2154508497187474 0.1524471741852423 0  0.1845491502812526 0.1524471741852423 0  0.1595491502812526 0.1706107373853764 0  0.15 0.2 0  0.1595491502812526 0.2293892626146237 0  0.1845491502812527 0.2475528258147577 0  0.2154508497187474 0.2475528258147577 0  1.1 0 0  1.1 0.41 0  0 0.205 0  0.55 0 0  0.55 0.41 0  0.275 0 0  0.275 0.41 0  1.65 0.41 0  1.65 0 0  0.8250000000000001 0.41 0  0.8250000000000001 0 0  1.375 0 0  1.375 0.41 0  1.925 0 0  1.925 0.41 0  1.5125 0.205 0  1.7875 0.205 0  0.6875 0.205 0  0.9625000000000001 0.205 0  1.2375 0.205 0  2.2 0.205 0  0.4687002074688797 0.2068568464730291 0  1.99375 0.2152743902439024 0  2.0625 0 0  2.0625 0.41 0  2.2 0.3075 0  0.4125 0 0  0.4125 0.41 0  1.7875 0.41 0  1.375 0.1486128048780488 0  1.5125 0 0  1.7875 0 0  1.5125 0.41 0  0.8250000000000001 0.2613871951219511 0  0.9625000000000001 0.41 0  0.9625000000000001 0 0  0.6875 0.41 0  0.6875 0 0  0.1375 0 0  0.1375 0.41 0  1.2375 0 0  1.1 0.1486128048780487 0  1.2375 0.41 0  1.65 0.1486128048780487 0  1.126715909090909 0.2793064024390244 0  1.676715909090909 0.2793064024390244 0  0.8517159090909092 0.1306935975609756 0  1.348284090909091 0.2793064024390244 0  0.34375 0.3032389320646208 0  1.894702181800738 0.1282910975492754 0  2.092797818199262 0.1282910975492754 0  1.85625 0.3075 0  0.61875 0.3075 0  0.61875 0.1025 0  0.3648540804333487 0.1240075933101478 0  0 0.3075 0  0 0.1025 0  2.099172119769978 0.25625 0  0.48125 0.09238439620688085 0  0.5781001037344399 0.2059284232365146 0  0.48125 0.3196743479159776 0  0.7265881057911006 0.3055240343720796 0  1.99375 0.08395950269330846 0  1.459960956013612 0.3075 0  1.569025960719943 0.2986889805672169 0  0.75625 0.08213100772579164 0  1.03125 0.3278689922742084 0  0.923871252904788 0.3078247185783941 0  1.959375 0.3126371951219512 0  1.749222215368287 0.1025 0  1.275777784631713 0.1025 0  2.2 0.1025 0  1.225938124459196 0.3075 0  1.550777784631713 0.1025 0  1.000777784631713 0.1025 0  1.44375 0.07430640243902442 0  1.16875 0.07430640243902437 0  1.899250267340833 0.2229966846119207 0  0.1020898364287272 0.3140258291809757 0  1.766482954545455 0.2934032012195123 0  0.3405058858996321 0.2119987970531874 0  0.7710785630958338 0.1710968191298857 0  1.046078563095834 0.2389031808701144 0  0.2 0.3400647632937836 0  1.421109702350723 0.2261157654379721 0  0.2800464974185557 0.08982544815605742 0  0.098916018031319 0.09171660955420841 0  2.13125 0 0  2.118919042110979 0.3422084711244843 0  1.30625 0.41 0  0.89375 0 0  1.597888256393107 0.2173787389261347 0  0.20625 0 0  1.829299675393195 0.07400700849299596 0  1.71875 0.41 0  1.16875 0.41 0  2.038220665644273 0.332420740103091 0  0.34375 0 0  0.417496017710808 0.2696595573092803 0  0.2 0.07687845740457822 0  0.9295982307099278 0.1343158415898188 0  0.07390688010811153 0.1697064032433452 0  0.5238366813727013 0.2578302467013575 0  0.05452951551825875 0.25625 0  0.5229630068078351 0.1548816096928243 0  1.452769549894695 0.1548122580621249 0  1.369219062229598 0.07430640243902442 0  1.30625 0 0  0.8504409521244898 0.3356935975609756 0  0.8821881244591965 0.205 0  1.720943423819132 0.1714577452753128 0  1.157188124459196 0.205 0  1.094219062229598 0.07430640243902437 0  1.03125 0 0  1.304056576180868 0.1714577452753128 0  1.67579304192913 0.07430640243902437 0  0.2751941921308361 0.3346083473122598 0  1.209670467133757 0.1362100266964769 0  1.025335513626278 0.1700681449722324 0  0.7562500000000001 0.41 0  1.58125 0 0  0.7567170593862014 0.2409196493502535 0  0.6926714215682891 0.1272249611432207 0  0.4139715849905988 0.3397932387114203 0  0.9840787304190477 0.2717749043358119 0  0.06875000000000001 0.41 0  0 0.35875 0  0.9281250000000001 0.06276726142697993 0  0.5507396469029935 0.3219409231578227 0  0.5504468037989405 0.09136885600634273 0  1.58125 0.41 0  1.631724228912893 0.3381867502687533 0  1.825608881788174 0.14499488549201 0  1.85625 0 0  1.44375 0 0  1.44375 0.41 0  1.85625 0.41 0  2.13125 0.41 0  0.7562500000000001 0 0  0.89375 0.41 0  0.4812500000000001 0 0  0.34375 0.41 0  0.4812500000000001 0.41 0  0.20625 0.41 0  0.06875000000000001 0 0  1.16875 0 0  0.61875 0 0  0.61875 0.41 0  1.03125 0.41 0  1.71875 0 0  1.99375 0 0  1.99375 0.41 0  1.340625 0.3489494290853124 0  1.134375 0.3489494290853123 0  1.700180620188976 0.3438659752031281 0  2.135782184673599 0.07126652247502523 0  1.668441847249787 0.2129203728327609 0  1.295782514339747 0.2378437748815763 0  0.8233075729931248 0.06842334294821524 0  1.409375 0.3520314716057996 0  0.403505597322782 0.182067236678212 0  0.378125 0.05794951541303489 0  0.3043468223249023 0.1518321115979534 0  2.129248544730567 0.1906135162504124 0  2.060771381434487 0.1989445750470348 0  2.013252586573865 0.1496169464686054 0  1.942766402200229 0.1734448904596831 0  1.895522487186454 0.06076163953489683 0  2.069553871656643 0.06605731020975725 0  1.274680914880868 0.3520219391081363 0  1.614713220494657 0.09473434380863296 0  0.7899021319497519 0.3149123934144827 0  0.69518737419149 0.0634051089053758 0  0.2971740475496061 0.2592172353407536 0  1.72990325744076 0.2380068107952482 0  1.356580098625191 0.2120393231351682 0  2.034370752044885 0.2668681600792073 0  1.51768709249349 0.3426260931494756 0  1.561883724969884 0.1650446847858835 0  1.197344062229598 0.2523725417393646 0  1.804085235518364 0.3468178408964637 0  1.817887819205233 0.2589243285818559 0  1.905897727272727 0.3485060975609756 0  0.6719798073392919 0.2688965171178177 0  0 0.05125 0  0.653125 0.35875 0  0.6396896119294488 0.1627615407790282 0  0.4274150154087412 0.1242548552168279 0  1.192836486056382 0.3562350748565544 0  0.8279124365364005 0.183856489168822 0  1.097485222388854 0.2083571153401724 0  1.28257088594801 0.2944411014911587 0  1.474860187679412 0.2504218616229368 0  1.406767003493824 0.2829282258560709 0  0.446875 0.04619219810344041 0  0.515625 0.04585361801037557 0  0.592043440706648 0.05125 0  1.845656689180403 0.1998310418452388 0  2.144958525570388 0.2909790873294231 0  0.6171090763650112 0.2492366900333857 0  2.2 0.15375 0  0.5145586920831158 0.3648371739579888 0  1.57794966442982 0.3540357145964566 0  0.721875 0.3633107922168974 0  0.0496154796471391 0.333125 0  0.5843750000000001 0.3662560860076676 0  0.5810878747760798 0.1474002776121195 0  1.508991196088596 0.1421783375065625 0  0.8840670607017558 0.2640994375393898 0  0.09776612425612034 0.2204896805326566 0  1.50436820029908 0.06143401634903343 0  1.223857000523521 0.0823554862453532 0  1.153316824384777 0.1289850171317837 0  2.148922302309752 0.1258841779285271 0  0.309375 0.04312325590431198 0  1.621993280276081 0.2841214267927899 0  1.550118654119087 0.2461998729100966 0  1.327182649291491 0.1216967252533594 0  1.051977450479407 0.1221382572915816 0  1.753125 0.04556020050186112 0  1.271875 0.04556020050186116 0  0.9816084133102366 0.05126138213476004 0  1.039051841454368 0.0572224914831029 0  0.9719230514536006 0.3480477870845102 0  1.94956388244759 0.1180512551534177 0  1.949997712993411 0.04965831614304109 0  1.771961817615021 0.1530278789497521 0  1.909246823951428 0.2812757146784527 0  0.2459536687882397 0.04668633953831142 0  1.948575539857022 0.2445328248721197 0  1.697271520964565 0.1233917627620729 0  0.7964897648514618 0.1211426571931604 0  1.065625 0.3689344961371042 0  1.085849084308977 0.3170853572226867 0  0.4702981435440001 0.260434880697798 0  1.577403511714593 0.05463601888079143 0  0.05622663515370135 0.05493816910862376 0  0.3267207591099919 0.3566194660323104 0  0.9003051618565143 0.3564049499960621 0  1.751571320346033 0.3651102912045228 0  0.1583785085108421 0.2994699345738728 0  0.1455283439499995 0.3542795598723423 0  2.2 0.35875 0  0.2347662494194072 0.298325008655211 0  0.1527284455616188 0.1065771775690181 0  0.1382139529076665 0.05427454456341477 0  0.8749341636311069 0.05110114999892954 0  0.643661668713109 0.05693499781019222 0  1.466879772203159 0.3611261772912453 0  1.990280163552011 0.3564754268533217 0  1.17471064520912 0.2990917256188288 0  0.5202693090594349 0.206382495511728 0  0 0.25625 0  2.2 0.25625 0  2.2 0.05125 0  0 0.15375 0  1.853978576207987 0.35875 0  0.9787513713939683 0.1487523696999336 0  0.240625 0.3722153812029779 0  1.515638456102889 0.2882700110184686 0  0.09048297387599738 0.3637717362208066 0  2.150453692751374 0.2387066338105111 0  1.323782677156475 0.04897634338873398 0  0.8074131292871642 0.3624701995505916 0  1.409375 0.03715320121951221 0  1.406484531114799 0.1087852750766809 0  1.134375 0.03715320121951218 0  1.627401732573545 0.04552157221025036 0  0.1170173172005315 0.1427610859166811 0  2.045405893604797 0.1105340662939892 0  1.255408269734577 0.1577307500159216 0  2.028125 0.03707597992059326 0  0.4743610090857199 0.1421513964721819 0  0.9354010469015898 0.250631300585664 0  0.04420832937638274 0.128125 0  0.8922386349349938 0.0992956419364831 0  0.1197849154434487 0.2663398672460083 0  1.248258025468107 0.2565907092181813 0  0.3746885856929528 0.370723531618974 0  1.203125 0.0366132337404304 0  0.5724622277005015 0.2751253816079333 0  0.3365425205162783 0.08395777655057959 0  2.072662025974815 0.2975086504196739 0  0.4581080832182547 0.3648371739579888 0  0.3874522734668214 0.2295447548840689 0  0.7827853612484443 0.04106550386289586 0  1.887722846421017 0.1760882698830035 0  1.472640588990488 0.1118278026240017 0  1.865937103925594 0.2604137786483804 0  1.463913572748262 0.2030442564990043 0  1.376426316059077 0.3186741374914345 0  0.6641993820150034 0.3141688596240831 0  0.2943117490824315 0.2130987422685822 0  0.3478153998082709 0.1666571081082676 0  0.3427990510599805 0.2575950027870776 0  0.7997118993855807 0.2216171933356366 0  
[...]
<PointData  Scalars="f_9-1"> 
<DataArray  type="Float64"  Name="f_9-1"  format="ascii">3.4156771522059654e-04  2.7385471000249324e-05  1.0635100589522886e-06  1.5413957374947702e-06  1.8036772096615217e-03  1.2780908471295026e-03  6.7941564201829232e-04  2.1563983390652185e-04  1.2245203859567993e-04  1.5498561353258122e-04  2.3285614290876765e-04  5.3277542176644868e-04  1.2149313460127647e-03  1.7943889405283282e-03  4.0222040793365675e-04  2.1032486649816460e-03  1.3799918517745763e-04  7.5452879196239732e-05  3.6891239535974886e-03  3.7177112093207559e-05  3.6731458605184977e-03  3.2678557145120500e-04  1.4466931218714852e-04  3.0457787722975123e-03  2.5394527507082809e-04  3.9935857572223540e-04  1.2399469356822413e-03  1.9616152697596039e-05  3.2411019400506760e-05  1.3878237233739214e-03  4.4604380358309782e-04  5.5664298988628166e-04  2.6228793832572391e-03  1.2754891585996977e-03  1.2919054448217801e-05  2.5746022595417623e-03  1.0244570719296845e-04  4.7748102297882058e-06  6.9905306028159520e-06  8.4463667627895250e-06  5.2040921635400528e-05  3.8578153238136249e-03  1.1515274866964288e-04  1.3745877652876139e-03  2.7321221628290061e-04  5.9890489405666754e-05  7.1041648503031643e-04  2.7678648360204396e-03  2.5506437585382344e-03  2.7245922707812981e-04  3.4626057580019348e-03  1.5968222350111949e-04  3.0067356555450243e-05  1.9606081069858203e-03  4.6061180583069019e-04  8.1094697024041459e-04  1.7090142092882554e-03  6.4551890733355799e-04  1.9135189965628261e-03  7.7986065962557113e-04  1.6457345367922431e-03  1.9885190733814053e-03  3.3135121417751444e-03  1.5108378133256252e-04  2.6641383656353856e-05  2.3444186276256072e-04  2.9856738231024494e-03  2.2777311204712607e-04  3.4675354599871916e-04  2.3805321375605694e-04  5.3556457686683149e-05  3.5130301277383565e-05  3.4020498982697053e-04  1.6158585874955125e-03  3.6844926367298443e-03  2.6890796597833530e-03  4.1178765903052390e-05  1.6034204965213431e-03  1.1356854751008361e-03  3.9167320593243418e-04  2.5445862460389732e-03  3.0613590667392093e-03  9.6320169715061502e-05  2.8564763116731620e-04  8.2784948857030278e-04  6.7405114349532177e-06  2.0172892049488828e-03  6.5362266172198187e-04  7.1183594642904642e-04  6.5697261308154562e-04  5.4540766934648886e-04  2.2324080005408362e-04  4.3662934837016389e-03  4.6672219415586552e-04  1.5811593337311722e-03  1.1014943174604713e-03  2.1142520371527939e-03  4.6521559452132105e-03  1.8333681482084979e-03  9.0303763371651663e-05  5.2404941590135595e-05  2.0031480852633368e-06  1.2334506160544988e-05  1.4894163675954887e-03  2.4884258806897930e-04  1.0358251674033034e-03  3.3545783616014699e-05  1.2692035841843833e-04  2.0388746454530590e-04  1.9082620527271635e-03  3.5031515766172566e-05  4.2527521027327282e-05  2.8674092324233792e-03  5.8931720146593260e-05  1.7538087889843762e-03  1.0205013048464428e-04  3.2189782401235234e-03  2.1943472718641413e-04  1.4381823965211901e-03  1.3499707876063608e-03  7.1773799091209769e-04  4.3832173539241909e-04  3.1729034128633632e-03  2.7609415209908050e-03  5.4389872502130538e-04  1.0923657004442615e-03  4.2820952709887446e-04  3.3475887574865637e-04  1.3129628567061645e-03  2.9383637981076217e-04  4.1257881469266957e-03  8.2594554848960272e-04  1.6500800108201494e-03  3.2855478208270320e-03  2.0747225740224611e-04  1.5725373136529087e-03  2.3847632165497061e-04  3.7973338921572131e-03  2.7663193092330621e-03  6.6707705055763173e-04  2.8648701007191968e-04  4.7652688169038846e-04  3.5759402816811390e-03  3.1126738992782186e-04  4.9327629099600947e-04  6.9216950659094060e-04  2.7083828964525420e-04  3.5185243116300518e-05  3.3412043363441779e-04  9.7415508579159940e-04  6.4985107748613026e-05  2.9679095081767133e-06  2.2260588898390481e-04  2.7907405585874340e-03  6.3699192360923022e-05  3.8446446084048759e-03  3.7901951325428631e-03  3.1152951544389539e-03  2.8056275728263074e-05  4.4822162065991957e-04  1.0229703827376191e-04  3.5791899463858876e-03  2.3148403582318681e-03  9.5766827594678271e-05  9.5297687485113067e-06  1.6005635903220905e-05  1.7158233998586284e-03  2.1605006075894780e-03  4.5672189518075384e-04  7.7831967613961233e-06  7.8883300990002640e-04  1.7199763952562546e-03  5.5361606727115517e-04  1.4738111935357085e-03  1.5878546233462681e-03  7.2785009441114112e-05  6.3269120431766327e-04  2.5625899876550248e-05  5.3183415670096768e-05  6.7632831634424891e-05  1.4034150765092232e-04  6.4204547900133450e-05  1.4458047755847706e-05  1.8532512340926656e-03  4.8159575856109835e-04  3.1433388054706809e-03  1.6858542491204705e-04  2.2236306042004235e-03  6.3318659865629456e-04  1.7685887357754458e-03  6.5496729942116311e-05  1.0967365975250603e-03  9.9113093716573196e-04  1.5724616335855192e-03  2.2382654588126456e-04  3.8385386023960934e-04  9.6922100887582161e-05  1.6707023364419620e-03  3.3841042283626169e-05  3.4344078738693623e-03  4.7580185639642202e-04  5.7862443498008973e-04  2.0056474818371168e-03  2.0855905786723310e-03  1.4238968287534656e-03  1.9967419989063654e-03  1.6635161231965509e-03  1.8965862954841955e-03  8.2238653874049328e-05  1.0874094525061204e-04  1.0583788376053885e-04  3.1014035339882001e-04  1.7530675298376910e-05  1.7327495182579893e-03  1.0716763490810110e-05  3.7548356970399008e-03  7.7237995845367375e-04  3.3724646958378890e-03  5.3655491923961451e-04  3.6137222238929842e-03  7.9988170298316333e-04  1.0576424740460473e-03  3.1010672589949885e-03  2.5009768999704823e-04  4.8091012319780230e-04  6.5937865862797720e-04  6.4849820301697504e-04  1.4283306251206341e-05  4.8010301285163108e-05  9.6784319439504295e-04  1.2838425941446565e-03  1.0487823532461308e-03  7.3360990145420889e-04  1.2864236359303927e-04  5.4703892937373380e-04  3.4203816997658757e-04  3.6138100810514229e-04  2.7330616749842158e-03  9.0815773599935634e-05  3.2787300116522308e-05  3.8435397677458660e-04  1.8548661259858910e-04  4.5208665281096243e-05  1.5041490531301962e-04  4.4267164227483320e-04  9.8938973437621243e-04  2.3025979770913605e-03  2.3037276898860122e-03  3.1215819951065072e-03  3.4686029583754397e-04  3.5661322882905596e-05  3.9495114759283715e-03  2.9479697005577290e-03  2.4980544080388273e-04  5.1510032807035857e-03  3.7671781021334171e-03  3.6156761992712781e-06  3.4405250827440775e-03  7.1713092193857226e-05  3.9693219692925813e-05  4.2717600884000564e-04  1.1610211013730286e-04  1.1606103958402589e-03  3.8167184421481561e-05  2.0008973879778328e-03  2.5399808627081066e-03  2.0458091115640420e-04  1.2191456839891777e-05  2.6812398319983440e-06  8.7577908651393499e-05  1.2792955002391112e-04  1.6930710136715537e-03  3.8188524687640005e-03  1.4097139482585992e-03  1.3506796146603732e-03  2.0829930527659690e-05  5.6368846475269283e-04  3.2067356253794137e-03  4.6407317787097989e-04  1.0059453113172594e-03  4.4374618263175506e-04  2.4988086178944028e-04  8.8110862008480338e-05  3.5928800428347008e-05  1.0715998660481797e-03  1.1963771509820741e-05  1.2380478226746562e-03  3.0033247706972277e-03  6.9387770922851535e-05  1.0752482052355165e-03  3.1656771535752905e-03  1.7315875021599884e-03  3.8886397491842192e-03  4.9879809379036594e-04  2.9957399573128539e-03  1.0280192003372460e-04  3.6803496573082275e-05  3.8269290986364390e-03  2.0911735063947417e-03  3.1400653209103023e-04  2.1509777119967615e-04  9.1998649831821387e-04  2.7693357689532121e-04  1.6061324442632884e-03  1.8333870190486653e-03  2.8371934360502723e-03  1.4799505927870331e-03  9.1163479292755048e-04  2.2655212465759814e-03  1.9591164123812215e-03  6.2339126041506977e-04  5.0548188436830071e-04  5.2013239203539183e-06  4.8120944767670573e-04  4.4847848343103786e-04  2.4623869659794470e-03  2.4719730821090176e-03  1.8577158216540139e-03  1.6985129654239935e-03  2.9138872476309113e-04  1.0737469043409655e-05  7.3869860524266630e-04  7.5584459008091564e-04  1.1879282800476819e-03  3.3169566050312855e-04  1.4245287755368534e-04  1.0134340157599111e-04  8.7212444853767356e-06  4.5851287752687960e-06  1.3255805379657592e-05  3.2121027436590576e-05  2.3159826819756310e-04  4.0336633932324192e-04  2.5111579672262553e-04  6.9187464000706293e-05  3.1768340818030981e-05  1.9354683052384032e-03  9.8134884989570237e-04  3.0424134410732251e-04  8.4136683188881529e-04  5.9752977771717036e-04  2.9151691902252895e-03  1.1806493317354958e-04  1.6256032993705954e-04  2.4321390858613170e-03  2.4940711025775880e-03  2.5559179051015008e-06  3.6344461540622279e-06  4.0337746341071454e-04  1.5865690059846429e-04  3.3059014411511174e-03  2.5963893394434978e-03  2.3409721825983429e-03  9.4376267612824053e-04  9.4433187416511464e-05  1.2867042778880359e-04  2.3928054905460064e-04  4.5759259562933559e-05  2.3334978351563264e-03  9.3667052726180988e-05  8.5836669011922327e-05  3.8048643231084199e-04  4.5801392498374206e-04  4.2316404139899623e-04  6.7230895237760683e-04  1.5427552794633085e-04  2.6335229203872843e-03  4.5907182319615168e-05  2.6755635057357880e-03  1.1889739511132947e-03  1.8635774718863565e-03  3.4460700152725055e-05  4.1525224266895434e-04  3.7628231790545233e-05  1.3710837790060165e-03  1.7913266673287628e-03  1.1164452115042924e-03  2.4892152672112543e-03  3.3651565381223832e-03  3.5298072718671575e-03  9.5817956563000288e-04  5.1236921211733220e-04  2.7808475351342754e-03  1.4621943328982957e-03  8.5250485440712851e-04  1.1888741622608557e-04  1.6389198178930238e-05  1.9679047710290647e-03  2.0643804883653622e-05  3.1705374392343375e-03  4.6174179665602547e-05  6.0833649744147583e-05  2.6662988245100966e-05  7.1121742759998105e-05  7.3317004031619234e-04  2.8838311406186886e-04  1.8349872547897899e-04  4.6914402018838753e-04  2.7596212543250078e-05  3.1412413352621118e-03  3.2881985570112899e-03  3.4299241370806159e-04  1.7163348807587694e-05  1.3662329155953723e-03  3.4797320291678386e-04  2.7408062558782914e-03  1.6358362239609465e-03  9.4204043119493159e-05  4.2308009717739702e-03  1.8035496472558330e-04  2.3969451883995346e-04  2.7475082555894000e-03  3.2640897219337493e-03  1.3575684164439639e-03  9.7324887599167686e-05  1.6749538878502845e-03  9.1685033627576882e-04  2.4612981594230117e-05  1.7895269622564749e-03  3.8846947658449085e-03  3.3724432795685056e-03  1.4716719197508913e-03  3.7863210687786946e-03  8.6296275276165531e-04  2.1281134651810591e-03  8.0037402781599242e-04  1.4766228476085349e-03  2.7623575502891493e-04  3.4626510839884115e-03  2.6091693850700606e-03  2.9928827803496075e-03  1.9644522120434857e-04  3.1893167870008284e-04  5.4411190891196838e-04  1.4005992149939111e-03  4.1544527855472298e-04  1.0599331757841209e-03  1.0311622888726124e-03  4.9541076519334212e-04  5.5135584288534150e-04  5.9167837791788578e-04  1.3510986208211861e-03  9.5539710625578003e-05  7.5359297569276845e-05  3.8257621063685892e-03  6.6974233779467632e-04  8.7092514121893524e-04  5.0418193456500281e-05  4.4208874965848835e-03  9.2820226198734408e-04  6.7813359997511671e-04  2.5806476645682075e-03  9.2833699485470763e-05  2.2756528407126006e-03  4.2081929248143540e-05  2.9751178965898716e-03  4.8557433539781256e-04  9.3356946421104469e-04  7.8012836499696911e-04  2.6186490304914761e-04  4.6195412528350720e-05  3.2206248748635345e-03  5.3137384548976548e-05  7.5751782276865220e-05  7.7197123809502068e-04  9.4426489756060591e-04  2.6270131715829095e-05  3.0445821245521475e-05  1.8019157728300915e-05  3.4325068486168919e-04  4.5427072791047278e-04  2.0378644205289102e-03  1.1866560855091702e-03  2.1399271238655630e-03  1.4120206857460007e-04  6.8943486134551200e-04  2.2559621305649376e-03  2.9958620005550023e-04  3.1372448889936710e-04  2.5139221965438905e-04  3.3409784077442702e-04  8.0925095801633440e-06  1.5476107374327652e-05  3.1844620840663462e-04  1.3905611999545981e-04  6.8214396772951142e-06  2.1714406372517221e-03  1.2463439271098245e-03  2.8789787757146834e-03  1.9641778453121549e-04  3.6361586776491794e-04  2.2042232928803037e-03  5.5878772656186092e-05  3.8609292781419881e-03  9.7761338883385271e-04  1.1361570807094420e-03  2.9302455500274781e-03  1.4918274480421663e-03  2.0129552576045500e-03  2.0049100013308447e-03  1.6415867961079133e-03  1.3581951433252748e-03  1.4423926744388279e-03  2.1225504114043333e-03  1.6231679348935493e-03  2.2855249419260504e-05  1.8058234690369814e-03  3.1691583681828185e-03  3.6830234838740416e-03  1.5808488062206711e-03  7.6195934010752340e-04  6.2530368891010253e-05  4.6316727242500312e-05  3.6952247882551807e-03  3.4677710955827632e-03  3.4506802060639209e-03  3.4102042592266779e-03  2.5666610736945058e-04  5.0876557244638109e-04  2.7895536779098170e-03  2.6891405406457539e-04  7.7530292537591474e-04  3.8649992548764643e-04  1.7417168047523970e-03  2.5499552990437932e-04  9.4378377829976802e-05  6.8759118371446715e-05  1.2319709404094280e-04  1.5977269722525936e-03  2.1104947400407224e-03  4.7174647708165564e-04  7.9735511705963255e-05  4.2385405864492787e-04  3.7007656190827132e-04  1.3233397580428890e-06  3.0029335483563461e-06  4.2874885649964026e-04  3.7195042264728470e-04  8.3927612478849553e-04  1.5614165347535770e-04  2.2067996926355255e-03  7.8670355357689594e-05  3.3863287268515413e-03  1.1010805256446846e-03  1.9439579199755373e-04  1.9872893437746963e-06  2.5768852830076864e-04  3.8654821667830834e-03  5.7404092509434434e-05  3.8316790154665496e-03  2.8843311852745536e-05  3.4644927264175264e-03  3.5019809741108940e-05  1.2073413462509793e-03  1.2794278965085903e-04  2.4325978139688763e-04  3.9403142233678234e-05  3.6339469049970312e-03  3.7413149553234067e-03  8.5126077683172040e-05  6.8691785152555815e-05  3.5274390456434836e-03  3.0125346866715909e-04  4.5654701909416317e-04  1.7373339602221006e-04  1.3643922739090013e-05  4.5342204960198255e-04  6.7337147800850390e-06  2.2341799899036383e-05  2.7773234019790570e-04  5.1911026999246749e-05  5.0399233540438589e-04  1.0932553194655692e-03  8.0303590597289958e-04  1.6391941831401984e-04  1.8680256011254636e-03  1.9566608669416394e-03  2.1072676414207246e-03  1.1975103484782011e-03  1.3921264137700051e-03  3.1965899965498849e-05  2.2777265101180479e-03  1.4801066757348734e-03  1.1617110672133100e-03  7.2415243610667751e-04  1.6755415364012015e-04  6.6669376762993281e-04  6.9249248266436842e-05  9.2869858883637174e-04  1.9694679639729667e-04  8.3436912631034744e-04  1.5686783233328817e-03  1.3220025938015878e-04  8.8692169139247467e-04  3.2023642171335729e-03  2.2379492773169415e-03  2.5544869496922805e-03  1.6858950348838528e-04  3.4033175851766744e-03  2.3054663330636559e-04  3.5480313332944273e-03  7.7881102819954301e-06  1.9474817677179394e-05  5.0111363801767675e-04  3.4540667428915243e-03  1.5903741114945444e-03  1.3408422657737210e-03  1.9881786535461119e-03  1.7828879628463979e-04  1.5927512868687277e-04  1.8998604586883594e-03  2.1963245326910167e-05  4.6672022098722201e-05  2.3293712601058403e-03  1.9321925387494351e-03  3.0146025358776529e-03  5.0767508612690352e-05  1.3449912428346929e-04  1.7616340976663019e-03  2.1713315781740836e-04  6.3857038572964840e-04  3.3276916776018537e-04  5.1784668927768819e-05  1.5611306418008961e-05  3.0587681720196301e-04  2.3112004503649929e-03  7.8093747774844681e-04  1.0963048912631715e-03  2.9043166359416701e-03  5.0871158639878913e-04  3.5055508154985656e-04  1.0526143039181696e-04  5.3197846046035333e-05  1.8478216117010352e-03  6.2988345116296791e-04  1.8176221621295520e-03  2.5037053319780717e-04  3.3690091131672505e-05  4.5770461031594114e-04  5.4490974394231335e-04  5.9947649916135216e-04  1.1879757378494983e-03  5.2774776670409315e-05  8.5005113869477485e-04  1.2720509571029269e-03  1.7986307889308230e-04  1.2499182462647751e-03  7.1197822204654474e-05  2.6682021247658532e-03  8.2823225830219884e-05  1.0576909964535579e-03  1.7942919151272688e-03  2.5885836621897403e-04  4.0484873629041712e-04  4.1511193262461601e-04  2.0641712759714406e-03  6.6438401319226506e-04  5.7366220746755308e-04  1.0185466173732320e-04  1.5227733508597306e-03  1.8321668203539828e-03  1.3461801341478833e-03  7.2278064282740883e-04  5.8642735640314955e-04  4.2490915829098298e-04  3.1433318103703928e-04  3.8516613873153558e-05  3.3595232324601875e-04  2.6194387119851278e-05  2.9041915070770045e-05  3.0160004999701746e-05  9.4093118072691921e-04  9.9870712286432179e-05  1.9588379777782448e-03  3.1891690295423611e-03  3.7621247450498885e-03  9.5691320106565663e-04  3.6440753525338904e-05  3.7556403143665989e-03  3.4569654514500269e-03  7.0979827624675077e-05  2.7394051653688296e-03  1.4699540755178078e-03  3.9262355428577372e-03  6.6664404032101875e-04  9.2299344573826007e-05  2.7797871513318036e-03  1.6778883113539444e-04  2.7396914896533012e-03  4.8789130622269359e-05  1.0721584110302638e-05  2.8898165843066499e-03  7.8109654781094545e-05  1.5026846932468076e-03  6.0439988248025774e-04  2.2730502760197587e-04  1.2909038984692044e-05  2.0655184965927059e-03  1.8545885057113211e-04  1.1405087813597049e-03  1.1270762401722227e-03  2.1470339791416237e-03  8.9584967407322876e-04  4.8763607129054064e-04  4.7426038208098245e-06  2.4207415016331904e-03  4.8210622658524033e-05  4.0767714621121317e-04  3.9526924122175811e-03  5.9354839503459990e-03  2.2566473171316994e-04  3.1528983292790111e-03  1.8487041474544268e-03  1.7436548373893671e-03  1.6483151672260835e-03  1.5410021254488994e-03  4.0298132145356403e-04  1.6117046290776171e-04  2.9321043323878943e-04  2.3734823977462425e-04  2.6465811252550783e-03  1.4078546701333326e-03  2.5098777305112298e-03  1.9694017926446534e-03  1.8902073853310358e-03  3.2654429709783003e-03  4.1601850121530997e-04  2.5631148441147481e-04  3.0486052675842740e-03  1.4805724455568350e-03  2.6116777230751941e-03  3.1526597700765107e-03  8.7944086786200937e-06  5.3630061374456374e-03  1.9618346640870878e-03  1.8618841734909122e-03  3.1229445674562308e-03  1.6590775371265614e-03  3.3554975206757710e-03  1.9392782298928139e-04  3.0041371483760307e-03  2.2311924013672666e-03  1.2949071438481458e-04  1.1038798756332004e-03  1.8755727806725114e-05  3.4528737383790362e-04  2.4499743228159091e-03  1.5254151928254642e-04  1.2001169232890086e-03  8.2108616469162325e-04  1.6391222231728773e-04  8.2714207597063072e-04  5.8153978872721684e-04  1.5211430651525782e-04  2.4024408177378020e-03  1.5865714432576741e-04  1.4416131205182494e-05  2.4451715885732706e-05  1.1290996847360515e-05  3.7214264039933053e-03  2.7266208784136126e-04  6.3949076512568302e-05  1.1589678441848296e-03  4.9446571477558153e-04  1.0246016115292929e-04  8.2497948393870225e-05  6.2799196953986739e-04  6.2447726223263645e-04  7.2621125018430062e-04  5.9830371921668968e-04  7.1426157736043469e-05  1.5759003764066002e-03  2.0150113915690421e-03  2.4173368953535543e-03  2.3841573316103980e-03  2.9600658915652283e-03  3.7939878035285067e-03  3.7847970673574836e-03  6.6778417563844263e-04  3.9599901630147880e-05  4.6808312188480318e-05  3.0333717929594333e-05  2.5070799950460800e-03  4.0097805228503476e-05  4.5978899233522298e-04  3.8516132992213697e-03  6.7089611703766573e-04  1.1990567162167087e-05  1.1286537107867291e-04  1.6526660155155796e-04  9.7318244322203932e-04  6.7590659075553617e-04  2.6453617059017118e-03  1.0808626328750243e-04  3.5319839946743796e-04  2.4363569873820895e-03  2.5579146307346955e-04  2.4001699852864819e-03  6.7470964296777603e-05  5.0961409017409815e-05  1.2178504960220192e-04  4.0789970830798570e-05  3.3334308934482673e-03  1.3627374016512495e-03  1.2181944124852720e-03  1.1579540557466574e-03  1.8853227417324656e-03  5.9570552784764816e-04  7.9706614141556006e-04  3.7104566727223873e-04  3.6730097224948501e-03  2.2146341259008661e-04  4.7526605816540317e-05  2.3325946479901247e-05  3.7616094124882839e-03  1.1412350515595773e-03  3.6613967197857519e-04  1.6559912102644112e-03  3.4443816372156536e-04  1.9030583709212833e-03  1.7747854791161824e-03  2.2612170823786545e-03  7.8010972304566294e-05  2.0078548322143025e-04  4.2533718317601554e-05  2.0117597656706490e-03  2.0973495060988513e-03  3.1847574632220699e-03  7.4892985175907425e-04  7.595484344526930