<?xml version="1.0"?>
<VTKFile type="UnstructuredGrid"  version="0.1"  >
<UnstructuredGrid>
<Piece  NumberOfPoints="2446" NumberOfCells="4585">
<Points>
<DataArray  type="Float64"  NumberOfComponents="3"  format="ascii">0 0.41 0  0 0 0  2.2 0 0  2.2 0.41 0  0.2404508497187474 0.2293892626146237 0  0.25 0.2 0  0.2404508497187474 0.1706107373853764 0  0.2154508497187474 0.1524471741852423 0  0.1845491502812526 0.1524471741852423 0  0.1595491502812526 0.1706107373853764 0  0.15 0.2 0  0.1595491502812526 0.2293892626146237 0  0.1845491502812527 0.2475528258147577 0  0.2154508497187474 0.2475528258147577 0  1.1 0 0  1.1 0.41 0  0 0.205 0  0.55 0 0  0.55 0.41 0  0.275 0 0  0.275 0.41 0  1.65 0.41 0  1.65 0 0  0.8250000000000001 0.41 0  0.8250000000000001 0 0  1.375 0 0  1.375 0.41 0  1.925 0 0  1.925 0.41 0  1.5125 0.205 0  1.7875 0.205 0  0.6875 0.205 0  0.9625000000000001 0.205 0  1.2375 0.205 0  2.2 0.205 0  0.4687002074688797 0.2068568464730291 0  1.99375 0.2152743902439024 0  2.0625 0 0  2.0625 0.41 0  2.2 0.3075 0  0.4125 0 0  0.4125 0.41 0  1.7875 0.41 0  1.375 0.1486128048780488 0  1.5125 0 0  1.7875 0 0  1.5125 0.41 0  0.8250000000000001 0.2613871951219511 0  0.9625000000000001 0.41 0  0.9625000000000001 0 0  0.6875 0.41 0  0.6875 0 0  0.1375 0 0  0.1375 0.41 0  1.2375 0 0  1.1 0.1486128048780487 0  1.2375 0.41 0  1.65 0.1486128048780487 0  1.126715909090909 0.2793064024390244 0  1.676715909090909 0.2793064024390244 0  0.8517159090909092 0.1306935975609756 0  1.348284090909091 0.2793064024390244 0  0.34375 0.3032389320646208 0  1.894702181800738 0.1282910975492754 0  2.092797818199262 0.1282910975492754 0  1.85625 0.3075 0  0.61875 0.3075 0  0.61875 0.1025 0  0.3648540804333487 0.1240075933101478 0  0 0.3075 0  0 0.1025 0  2.099172119769978 0.25625 0  0.48125 0.09238439620688085 0  0.5781001037344399 0.2059284232365146 0  0.48125 0.3196743479159776 0  0.7265881057911006 0.3055240343720796 0  1.99375 0.08395950269330846 0  1.459960956013612 0.3075 0  1.569025960719943 0.2986889805672169 0  0.75625 0.08213100772579164 0  1.03125 0.3278689922742084 0  0.923871252904788 0.3078247185783941 0  1.959375 0.3126371951219512 0  1.749222215368287 0.1025 0  1.275777784631713 0.1025 0  2.2 0.1025 0  1.225938124459196 0.3075 0  1.550777784631713 0.1025 0  1.000777784631713 0.1025 0  1.44375 0.07430640243902442 0  1.16875 0.07430640243902437 0  1.899250267340833 0.2229966846119207 0  0.1020898364287272 0.3140258291809757 0  1.766482954545455 0.2934032012195123 0  0.3405058858996321 0.2119987970531874 0  0.7710785630958338 0.1710968191298857 0  1.046078563095834 0.2389031808701144 0  0.2 0.3400647632937836 0  1.421109702350723 0.2261157654379721 0  0.2800464974185557 0.08982544815605742 0  0.098916018031319 0.09171660955420841 0  2.13125 0 0  2.118919042110979 0.3422084711244843 0  1.30625 0.41 0  0.89375 0 0  1.597888256393107 0.2173787389261347 0  0.20625 0 0  1.829299675393195 0.07400700849299596 0  1.71875 0.41 0  1.16875 0.41 0  2.038220665644273 0.332420740103091 0  0.34375 0 0  0.417496017710808 0.2696595573092803 0  0.2 0.07687845740457822 0  0.9295982307099278 0.1343158415898188 0  0.07390688010811153 0.1697064032433452 0  0.5238366813727013 0.2578302467013575 0  0.05452951551825875 0.25625 0  0.5229630068078351 0.1548816096928243 0  1.452769549894695 0.1548122580621249 0  1.369219062229598 0.07430640243902442 0  1.30625 0 0  0.8504409521244898 0.3356935975609756 0  0.8821881244591965 0.205 0  1.720943423819132 0.1714577452753128 0  1.157188124459196 0.205 0  1.094219062229598 0.07430640243902437 0  1.03125 0 0  1.304056576180868 0.1714577452753128 0  1.67579304192913 0.07430640243902437 0  0.2751941921308361 0.3346083473122598 0  1.209670467133757 0.1362100266964769 0  1.025335513626278 0.1700681449722324 0  0.7562500000000001 0.41 0  1.58125 0 0  0.7567170593862014 0.2409196493502535 0  0.6926714215682891 0.1272249611432207 0  0.4139715849905988 0.3397932387114203 0  0.9840787304190477 0.2717749043358119 0  0.06875000000000001 0.41 0  0 0.35875 0  0.9281250000000001 0.06276726142697993 0  0.5507396469029935 0.3219409231578227 0  0.5504468037989405 0.09136885600634273 0  1.58125 0.41 0  1.631724228912893 0.3381867502687533 0  1.825608881788174 0.14499488549201 0  1.85625 0 0  1.44375 0 0  1.44375 0.41 0  1.85625 0.41 0  2.13125 0.41 0  0.7562500000000001 0 0  0.89375 0.41 0  0.4812500000000001 0 0  0.34375 0.41 0  0.4812500000000001 0.41 0  0.20625 0.41 0  0.06875000000000001 0 0  1.16875 0 0  0.61875 0 0  0.61875 0.41 0  1.03125 0.41 0  1.71875 0 0  1.99375 0 0  1.99375 0.41 0  1.340625 0.3489494290853124 0  1.134375 0.3489494290853123 0  1.700180620188976 0.3438659752031281 0  2.135782184673599 0.07126652247502523 0  1.668441847249787 0.2129203728327609 0  1.295782514339747 0.2378437748815763 0  0.8233075729931248 0.06842334294821524 0  1.409375 0.3520314716057996 0  0.403505597322782 0.182067236678212 0  0.378125 0.05794951541303489 0  0.3043468223249023 0.1518321115979534 0  2.129248544730567 0.1906135162504124 0  2.060771381434487 0.1989445750470348 0  2.013252586573865 0.1496169464686054 0  1.942766402200229 0.1734448904596831 0  1.895522487186454 0.06076163953489683 0  2.069553871656643 0.06605731020975725 0  1.274680914880868 0.3520219391081363 0  1.614713220494657 0.09473434380863296 0  0.7899021319497519 0.3149123934144827 0  0.69518737419149 0.0634051089053758 0  0.2971740475496061 0.2592172353407536 0  1.72990325744076 0.2380068107952482 0  1.356580098625191 0.2120393231351682 0  2.034370752044885 0.2668681600792073 0  1.51768709249349 0.3426260931494756 0  1.561883724969884 0.1650446847858835 0  1.197344062229598 0.2523725417393646 0  1.804085235518364 0.3468178408964637 0  1.817887819205233 0.2589243285818559 0  1.905897727272727 0.3485060975609756 0  0.6719798073392919 0.2688965171178177 0  0 0.05125 0  0.653125 0.35875 0  0.6396896119294488 0.1627615407790282 0  0.4274150154087412 0.1242548552168279 0  1.192836486056382 0.3562350748565544 0  0.8279124365364005 0.183856489168822 0  1.097485222388854 0.2083571153401724 0  1.28257088594801 0.2944411014911587 0  1.474860187679412 0.2504218616229368 0  1.406767003493824 0.2829282258560709 0  0.446875 0.04619219810344041 0  0.515625 0.04585361801037557 0  0.592043440706648 0.05125 0  1.845656689180403 0.1998310418452388 0  2.144958525570388 0.2909790873294231 0  0.6171090763650112 0.2492366900333857 0  2.2 0.15375 0  0.5145586920831158 0.3648371739579888 0  1.57794966442982 0.3540357145964566 0  0.721875 0.3633107922168974 0  0.0496154796471391 0.333125 0  0.5843750000000001 0.3662560860076676 0  0.5810878747760798 0.1474002776121195 0  1.508991196088596 0.1421783375065625 0  0.8840670607017558 0.2640994375393898 0  0.09776612425612034 0.2204896805326566 0  1.50436820029908 0.06143401634903343 0  1.223857000523521 0.0823554862453532 0  1.153316824384777 0.1289850171317837 0  2.148922302309752 0.1258841779285271 0  0.309375 0.04312325590431198 0  1.621993280276081 0.2841214267927899 0  1.550118654119087 0.2461998729100966 0  1.327182649291491 0.1216967252533594 0  1.051977450479407 0.1221382572915816 0  1.753125 0.04556020050186112 0  1.271875 0.04556020050186116 0  0.9816084133102366 0.05126138213476004 0  1.039051841454368 0.0572224914831029 0  0.9719230514536006 0.3480477870845102 0  1.94956388244759 0.1180512551534177 0  1.949997712993411 0.04965831614304109 0  1.771961817615021 0.1530278789497521 0  1.909246823951428 0.2812757146784527 0  0.2459536687882397 0.04668633953831142 0  1.948575539857022 0.2445328248721197 0  1.697271520964565 0.1233917627620729 0  0.7964897648514618 0.1211426571931604 0  1.065625 0.3689344961371042 0  1.085849084308977 0.3170853572226867 0  0.4702981435440001 0.260434880697798 0  1.577403511714593 0.05463601888079143 0  0.05622663515370135 0.05493816910862376 0  0.3267207591099919 0.3566194660323104 0  0.9003051618565143 0.3564049499960621 0  1.751571320346033 0.3651102912045228 0  0.1583785085108421 0.2994699345738728 0  0.1455283439499995 0.3542795598723423 0  2.2 0.35875 0  0.2347662494194072 0.298325008655211 0  0.1527284455616188 0.1065771775690181 0  0.1382139529076665 0.05427454456341477 0  0.8749341636311069 0.05110114999892954 0  0.643661668713109 0.05693499781019222 0  1.466879772203159 0.3611261772912453 0  1.990280163552011 0.3564754268533217 0  1.17471064520912 0.2990917256188288 0  0.5202693090594349 0.206382495511728 0  0 0.25625 0  2.2 0.25625 0  2.2 0.05125 0  0 0.15375 0  1.853978576207987 0.35875 0  0.9787513713939683 0.1487523696999336 0  0.240625 0.3722153812029779 0  1.515638456102889 0.2882700110184686 0  0.09048297387599738 0.3637717362208066 0  2.150453692751374 0.2387066338105111 0  1.323782677156475 0.04897634338873398 0  0.8074131292871642 0.3624701995505916 0  1.409375 0.03715320121951221 0  1.406484531114799 0.1087852750766809 0  1.134375 0.03715320121951218 0  1.627401732573545 0.04552157221025036 0  0.1170173172005315 0.1427610859166811 0  2.045405893604797 0.1105340662939892 0  1.255408269734577 0.1577307500159216 0  2.028125 0.03707597992059326 0  0.4743610090857199 0.1421513964721819 0  0.9354010469015898 0.250631300585664 0  0.04420832937638274 0.128125 0  0.8922386349349938 0.0992956419364831 0  0.1197849154434487 0.2663398672460083 0  1.248258025468107 0.2565907092181813 0  0.3746885856929528 0.370723531618974 0  1.203125 0.0366132337404304 0  0.5724622277005015 0.2751253816079333 0  0.3365425205162783 0.08395777655057959 0  2.072662025974815 0.2975086504196739 0  0.4581080832182547 0.3648371739579888 0  0.3874522734668214 0.2295447548840689 0  0.7827853612484443 0.04106550386289586 0  1.887722846421017 0.1760882698830035 0  1.472640588990488 0.1118278026240017 0  1.865937103925594 0.2604137786483804 0  1.463913572748262 0.2030442564990043 0  1.376426316059077 0.3186741374914345 0  0.6641993820150034 0.3141688596240831 0  0.2943117490824315 0.2130987422685822 0  0.3478153998082709 0.1666571081082676 0  0.3427990510599805 0.2575950027870776 0  0.7997118993855807 0.2216171933356366 0  
[...]
<PointData  Scalars="f_9-1"> 
<DataArray  type="Float64"  Name="f_9-1"  format="ascii">7.9920929311394387e-04  2.9416040898056379e-04  1.8515631170411449e-03  1.9748279585517533e-03  2.1737556634147696e-03  1.6524364644770783e-03  1.0004558763404220e-03  5.2767072996149343e-04  4.6229447706959886e-04  5.0801261053114936e-04  6.0555756755323602e-04  9.4474482564276701e-04  1.6523842266249528e-03  2.1936156441075680e-03  1.8862509877414320e-03  2.4241844200159216e-03  4.9852610126304851e-04  4.1245092530725613e-04  4.0239451731481487e-03  3.1120961034178857e-04  4.1047300312476564e-03  2.1054142112905392e-03  1.9040332888301918e-03  3.1160775683078288e-03  1.3039962596548642e-03  1.9091135914370012e-03  2.1728273779041134e-03  1.8838810724682205e-03  2.0337915946621920e-03  2.0191133202209313e-03  2.0523566194041182e-03  9.5919086181902766e-04  2.7577199569630306e-03  2.0266143773476574e-03  1.9810718326859476e-03  3.2974311399965438e-03  2.0161817513791231e-03  1.8625692841900037e-03  1.9973216272179662e-03  1.9954811623937208e-03  3.2878741950007756e-04  4.2962463478636468e-03  2.0705203494829020e-03  2.1271629817112723e-03  1.9209428413341444e-03  1.8867891676914046e-03  2.1400711408239566e-03  2.5807130176499177e-03  2.5291742640385782e-03  1.5259819880046926e-03  3.6983688914957176e-03  8.9923571340924245e-04  2.9908363679213498e-04  2.4310062741036628e-03  1.9183855005865929e-03  1.8140565371104218e-03  2.2355081131878477e-03  2.0197602904527745e-03  1.9608462248444660e-03  2.1286843410521024e-03  2.5745568297901541e-03  2.2844232111014647e-03  3.7763981887973135e-03  1.9305361910355375e-03  1.9760117136323626e-03  2.0685395983196901e-03  2.7774189986487993e-03  6.5810484578601453e-04  4.9479737410125415e-04  6.6507369821746721e-04  3.4946714941087393e-04  2.0302212455984010e-03  8.3286142012332866e-04  2.6588853892887255e-03  4.2157188610463291e-03  2.3059321829384011e-03  1.9391761112607841e-03  2.1738447724855524e-03  2.1224509199728419e-03  1.5803424349678671e-03  2.1286546842252548e-03  2.6159106618281426e-03  2.0474858815263922e-03  1.9556116032405577e-03  2.0717716448034038e-03  1.8896246915729156e-03  2.2748330132774186e-03  1.9482075619818415e-03  1.7938154368360602e-03  1.9235057132183965e-03  1.9826700170696423e-03  1.9951618427303014e-03  4.8216872782519482e-03  2.1053286522232789e-03  1.6895629658874301e-03  1.5998007469573785e-03  2.2843330391602015e-03  5.0567640911779845e-03  2.2051985665406154e-03  3.7971899604350166e-04  3.4802013545632117e-04  1.8530989717760783e-03  2.0010209688773534e-03  2.1935735509956444e-03  1.3630531861974970e-03  2.0502025102495038e-03  3.0534601002328387e-04  1.9019403711658448e-03  2.0880332814690156e-03  2.3314432165172723e-03  2.0228664412716632e-03  3.1816800902678281e-04  3.4190917277482180e-03  3.5515263286422475e-04  2.6285124965398179e-03  4.4139947448604408e-04  3.8600767321314046e-03  6.1810158090770326e-04  2.6778087708924860e-03  1.9897174478226533e-03  1.9594815807991062e-03  1.9053619638158710e-03  3.1453150227458569e-03  2.7077553638591607e-03  2.0621438381901373e-03  1.8217165510956304e-03  1.8638600890349705e-03  1.7455029651775339e-03  2.1705403391208645e-03  1.9544808050994699e-03  4.5316069768187072e-03  1.9310873347322820e-03  2.1650371763073314e-03  3.4773816416205526e-03  1.9165237674751605e-03  1.4065097931700475e-03  8.3606044174638265e-04  4.2720383269943133e-03  2.4004297189926583e-03  1.1288901652143997e-03  7.3579445132633612e-04  1.7205977395080780e-03  3.9055673587704005e-03  8.4133859994223745e-04  2.1233743467148386e-03  2.1257794199377265e-03  1.9479593244141253e-03  1.8870103623055291e-03  1.9176386742057021e-03  2.1556317082260597e-03  2.0532898570111589e-03  1.9828662324683373e-03  1.1647676322114695e-03  2.7398229932990353e-03  3.4884616081300895e-04  4.2779310973013081e-03  4.1983529842992209e-03  3.5689316876632684e-03  2.9547008999108624e-04  1.9232058874832994e-03  6.0366862672044856e-04  3.8394026053528056e-03  2.4676144214233380e-03  1.8914969988258928e-03  1.8738032709460491e-03  2.0147790290881329e-03  2.2109686288918060e-03  2.2848431432438087e-03  2.1103500876502633e-03  1.8843217077302791e-03  2.0921089393414177e-03  2.2588310237219378e-03  1.9733919060608020e-03  2.1829464144396968e-03  1.8449637828133070e-03  3.4665643474745671e-04  8.0492027171625267e-04  2.0144519904530854e-03  2.0281453048738608e-03  1.9924549741085788e-03  1.9659263902758054e-03  1.9053376676456983e-03  1.9046321906042434e-03  2.2354790739251363e-03  1.9708342920540223e-03  3.0590918997066225e-03  9.1045672684336818e-04  2.5947286063040310e-03  2.1131431493638304e-03  2.2707465370843624e-03  2.0389672325977410e-03  2.1418236793497155e-03  1.9702226003089269e-03  2.0264010637432565e-03  2.0823594128465068e-03  2.0679821652824248e-03  2.0544507209373656e-03  1.3991341399390736e-03  3.0847899359430085e-04  3.4673364093163357e-03  1.1158887522594995e-03  9.0526441651974580e-04  2.3152972392632113e-03  2.0729071476024200e-03  1.9113257777458115e-03  2.2759907470385190e-03  2.1367104532581324e-03  2.2480838208429887e-03  3.7021179756656749e-04  4.3242585239838241e-04  4.7167942663601452e-04  1.9925735462259547e-03  2.0110066266491389e-03  1.9977675466639378e-03  1.9365052251431583e-03  4.1512421428835915e-03  2.1322912853188451e-03  3.4729598118325498e-03  9.7548820625454518e-04  3.8413549196519171e-03  1.8236929202088419e-03  1.9427815236531473e-03  2.9496276980893305e-03  6.3552309636544604e-04  1.9293348747377156e-03  2.0194942021379832e-03  1.9006521395590063e-03  1.9389769794307646e-03  3.2648451062383113e-04  2.1242684313824509e-03  2.0709588842495845e-03  2.1187629367474961e-03  1.7697783193916915e-03  1.8995273408171410e-03  1.9691008465658947e-03  1.5736763966670093e-03  1.7037739754764717e-03  2.3392606599527432e-03  1.9508261366142851e-03  1.9040400769407162e-03  2.0050327949822674e-03  2.0445273392106205e-03  3.2585565067783594e-04  2.0198397980788962e-03  2.0101681399681934e-03  2.2082258004041898e-03  2.3263444477089981e-03  2.0618851397661967e-03  3.7767183427447324e-03  1.9388919183841353e-03  3.1253141814137966e-04  4.3591854134231410e-03  2.7525441468050755e-03  2.0900001941486978e-03  5.6412944713162810e-03  4.1948459065372697e-03  1.9836998251193116e-03  3.9051081442994960e-03  3.8386861907499021e-04  3.2024847237435461e-04  1.7130266199884394e-03  6.0506559712477769e-04  2.1557912149591748e-03  2.0281137668778271e-03  2.1476526661786256e-03  3.4985204095810919e-03  6.0064741157196048e-04  1.9984302831573320e-03  1.8608162446156979e-03  4.1337636803914898e-04  2.0654038203507096e-03  2.3977309290039001e-03  4.2349708477074869e-03  2.1237087735211358e-03  1.8023195994477971e-03  2.0177482585283417e-03  1.9499226677312290e-03  3.3188571754508094e-03  1.9155118881683019e-03  1.9759487927099575e-03  1.9309038749469936e-03  1.9320164689665567e-03  4.1733750536779952e-04  1.9676952673188149e-03  2.0294824708051618e-03  1.8850142609159648e-03  2.1948397851044420e-03  2.7450007815828011e-03  3.8077289461919674e-04  2.4431714141473254e-03  3.6531084231401362e-03  2.2096328039378460e-03  4.3200135242508165e-03  1.9587745095012757e-03  3.2815749971465357e-03  3.7076592935975469e-04  2.0256794334508059e-03  4.2743736104075853e-03  2.4228458523538597e-03  1.4303854244255676e-03  1.9533003062457482e-03  1.9325703252958699e-03  2.0413438391332062e-03  2.0724404715007781e-03  2.2328856995215761e-03  2.4225252002399262e-03  1.7317541095601178e-03  8.5459539079089290e-04  2.5922070408097553e-03  1.7615619137571574e-03  2.1225305968469209e-03  2.0943873168848028e-03  1.8669267529273139e-03  1.0355615163355830e-03  1.4095645061698177e-03  2.5514668533012839e-03  2.2418220197296078e-03  2.0379574502279131e-03  2.1863289176388199e-03  5.6009214042630566e-04  2.0057016691883618e-03  1.9834466988653703e-03  1.4169236380599673e-03  1.1195050262005231e-03  2.0852016740095219e-03  5.0639539958037560e-04  2.0382327634891621e-03  1.9957383760614328e-03  1.9897727238461244e-03  2.0032533148364512e-03  3.0444240011134595e-04  1.1676913069840944e-03  2.1143473498659265e-03  1.9371126042929572e-03  2.0400365345481209e-03  3.0220251115028801e-04  2.2796792856243264e-03  1.8652660387618850e-03  1.9201878118349678e-03  2.0418417358836140e-03  2.1320217201473961e-03  2.9119507086761494e-03  1.8969490747395622e-03  1.9114262938148155e-03  2.4870629751861380e-03  2.3421404504063033e-03  1.8572573202521464e-03  1.9833043422977556e-03  8.6189165685875591e-04  6.6512195452443764e-04  3.4505282046542419e-03  2.8348177504166202e-03  2.6763625450014292e-03  2.1016141878211938e-03  1.8928043871965661e-03  1.9126238096418247e-03  1.9195296758453772e-03  2.0365661115526678e-03  2.8319686817361079e-03  4.1027311016399463e-04  2.0617477262279073e-03  1.8374606143003584e-03  2.1095304456877333e-03  2.1099803267449306e-03  1.8553699651479357e-03  4.3227197213829778e-04  3.0977084832380518e-03  2.0045402997039773e-03  2.6092964707036237e-03  2.0123464014804135e-03  2.2629054103106986e-03  2.0130547172424232e-03  1.9213868265977501e-03  3.1413255886005557e-04  1.9265435561147451e-03  2.5265639664671736e-03  2.0944933908139877e-03  2.2213882213946066e-03  3.8761421898691533e-03  4.0953374398607894e-03  1.1823802341582618e-03  1.9356964636553751e-03  2.6244448411147951e-03  1.8787420778687345e-03  1.8244883166993163e-03  4.7183679143823282e-04  1.9746814635414191e-03  2.2540482769748973e-03  1.8980214667912742e-03  3.0794715026830426e-03  2.0436897852738620e-03  1.8938553975337774e-03  1.8863913558279399e-03  1.9257886348488305e-03  1.9349877944407137e-03  1.9572077810116203e-03  1.9171302121301222e-03  1.9910918439347987e-03  2.9460210334600903e-04  2.9202082863524024e-03  3.7404304207851796e-03  7.9610644197457389e-04  2.0101128360835905e-03  2.0419682123348484e-03  8.3424686223734367e-04  2.2004311918300233e-03  2.0670028710909165e-03  4.2348369967128868e-04  4.7052053245856167e-03  1.9128352182989216e-03  1.1056985181004191e-03  2.5444263123471571e-03  3.1451727643552201e-03  1.9837440597076342e-03  4.3151436221527923e-04  1.9559402386377252e-03  2.4034271406899455e-03  1.9258612146058659e-03  2.1999575680840488e-03  4.2944697441929603e-03  3.8104275925768096e-03  2.0917994585634967e-03  4.2161871587560375e-03  1.8852456909841016e-03  3.2177475844823323e-03  1.7099089582798292e-03  2.7306074285751206e-03  4.8240148240581129e-04  4.0740827225496015e-03  3.3906636436279993e-03  2.9634473505377183e-03  6.0838517302413064e-04  1.9258699527762945e-03  2.0814989499771354e-03  2.1573159000113969e-03  2.0140866394609720e-03  2.1154388730358084e-03  2.0426630960036283e-03  1.9189948483359692e-03  1.8170048554535490e-03  2.0466152992238682e-03  2.1832677642594999e-03  1.9734923958897436e-03  3.9304681222319569e-04  4.2638174862470258e-03  1.9738915153206488e-03  2.0196262090884619e-03  3.4366070912455923e-04  4.8240984658603119e-03  2.1303661467018541e-03  2.1250873121857420e-03  3.0112609521612973e-03  4.1603580718757843e-04  2.6866773124356929e-03  3.2618939326127972e-04  3.6875460062168052e-03  2.1171264791149127e-03  2.0049613809822739e-03  2.1390296461822455e-03  7.2616098747185006e-04  1.8868713994266480e-03  3.1556818080979302e-03  2.0366279209344659e-03  2.0333548591790502e-03  2.0463668449931319e-03  1.2507139395517728e-03  2.0194379245843568e-03  2.0280843943448934e-03  2.0025788952819455e-03  2.0967749273029528e-03  1.9388587226485867e-03  2.3374940851981865e-03  1.9974874293742723e-03  2.5365236745381980e-03  7.9838636225332174e-04  1.9310022715313185e-03  2.2473804518701309e-03  1.5022719198758930e-03  1.4861382205105266e-03  1.3292786999997413e-03  1.5092614511792747e-03  1.8924128268710269e-03  1.9297761519222047e-03  1.6516039523781947e-03  1.9942631948194813e-03  1.9926038514406635e-03  1.8257088445879455e-03  1.9298746894049366e-03  2.8543390684621422e-03  1.9258569072745186e-03  1.9995780973800915e-03  2.7798284255699511e-03  3.3289086345515597e-04  4.3037993887011204e-03  2.2336892722423971e-03  1.2220962929608513e-03  2.3697063281478839e-03  2.0856949363750378e-03  2.3496833807709304e-03  2.3826787967167451e-03  2.2043920441132164e-03  2.1818694835001495e-03  2.1849619567749358e-03  2.1160696887915138e-03  2.0950825151226185e-03  1.9836725953200174e-03  2.2769689187470575e-03  3.3074271217085672e-03  4.0049573848828391e-03  1.6625072342069773e-03  8.4325946656624838e-04  3.4107564630916345e-04  3.2228104389529023e-04  4.1516908955783549e-03  3.9602623486989039e-03  3.5400174619402156e-03  3.3966894644493206e-03  1.9526251062805680e-03  1.9562808816273717e-03  2.6538406076719173e-03  7.4353080110353643e-04  1.7579763480115456e-03  9.9001474796551721e-04  2.2126671092981042e-03  2.0962451636750436e-03  1.9960749715799550e-03  2.0135342956842592e-03  2.0422913565648726e-03  2.2084778627819842e-03  2.3798847260100430e-03  1.9478040852252577e-03  3.7340042787198803e-04  1.9058073266799422e-03  1.8320076662735349e-03  1.8516856515988348e-03  1.8563134073314759e-03  1.9127133715855218e-03  1.9135708587461710e-03  2.1477617853452894e-03  2.0794848866823243e-03  2.4490729723546864e-03  1.8885442157911346e-03  3.6068505841626575e-03  2.1635671834032808e-03  1.0478496058000050e-03  1.9774047231535729e-03  1.4325432891478013e-03  4.3032036491913511e-03  3.3619850945068618e-04  4.2606479044268409e-03  2.9688056763732724e-04  3.9055154897309216e-03  3.0774822716323825e-04  1.6755679091009360e-03  7.4851306035241699e-04  1.2504124715931335e-03  3.1444014985467867e-04  3.9286436723123212e-03  4.1171199631373457e-03  4.8972547777871578e-04  3.6995914674579607e-04  3.7795002342329367e-03  1.6370847001085801e-03  1.9212715996519440e-03  1.9107037006055863e-03  1.8794553175537610e-03  1.9108270786145644e-03  1.8680140277835425e-03  2.0238309337853263e-03  2.0949390388661799e-03  1.9702316220530269e-03  1.8518143301372127e-03  1.9587228102975179e-03  1.8508166481554782e-03  4.0548952777842435e-04  2.2917872817023789e-03  2.2846978534537777e-03  2.2702797575652866e-03  2.1315063801846451e-03  2.1463510308896787e-03  1.8916011735543485e-03  2.7695272347892058e-03  2.1745470946760051e-03  2.1637441918562735e-03  2.1244193210833940e-03  2.0599121774388406e-03  2.0973604231524557e-03  3.6640053521737060e-04  1.1903645129111740e-03  1.9186038857419015e-03  2.1182917551750189e-03  2.2399637626247895e-03  2.0533727851889090e-03  2.1461470846997513e-03  3.1692518832781053e-03  2.1080629472194213e-03  2.4489178758517623e-03  5.4700879771570315e-04  3.8551299374167711e-03  1.9228437014820320e-03  3.7307462076024787e-03  1.8747780986130272e-03  1.9350619650316341e-03  1.6987764665201931e-03  3.6057440973227169e-03  2.2136805751621870e-03  1.7695242247634795e-03  2.2743153824162149e-03  1.9770908350422809e-03  1.9461583486862380e-03  2.3613470171123586e-03  2.0119337489181862e-03  3.3372117940516047e-04  1.9665317982787353e-03  1.5240547850293650e-03  2.8848858686612430e-03  2.0327285508130633e-03  2.0715953586107811e-03  2.1079395112348978e-03  2.0763904932658370e-03  2.1235434042338385e-03  2.0312587085033491e-03  1.9316133309546491e-03  2.0089737595275757e-03  6.7715266859689550e-04  2.7300872141445280e-03  1.9600684234289834e-03  2.4505766580885662e-03  2.4736056232832170e-03  1.9568624677162656e-03  1.9609333363707140e-03  4.4007972107357928e-04  2.0439765769731822e-03  2.0871163114319835e-03  2.1307628887629348e-03  2.1739270681847755e-03  4.9950551770127564e-04  3.0670030512458974e-04  1.1124487077142050e-03  2.1236116455157455e-03  1.8744754232827821e-03  1.9757398737243964e-03  3.3562551757295345e-04  2.0325101364188588e-03  2.2684591483350183e-03  9.7597015001271671e-04  2.0427123485519242e-03  2.0528852789436793e-03  2.2120610699127626e-03  2.0476939523543683e-03  1.9496428896404530e-03  2.6965945603661958e-03  1.9236670475337920e-03  2.0508661684120852e-03  1.7620721719561632e-03  2.2759522986843536e-03  1.0912615127836179e-03  2.1136616069355680e-03  5.6270064139463539e-04  2.1640775392353026e-03  2.1936860085659603e-03  1.8851240518613112e-03  2.0573982352633416e-03  1.9250546326635165e-03  2.0909514869515583e-03  2.0694750012332369e-03  2.0283346389480248e-03  1.9230867877308283e-03  2.0240551770314657e-03  2.9788959777667936e-04  3.0040447296071214e-04  1.9491759706370523e-03  1.9199083961677441e-03  2.2483591092722277e-03  3.6447674715333420e-03  4.2618375816146619e-03  2.1366204695334855e-03  3.1081475337784673e-04  4.1772695986775354e-03  4.0690584816841279e-03  1.9645355203370342e-03  3.3066470235370818e-03  2.1885555335178445e-03  4.3427152676492877e-03  2.0332469075253681e-03  2.0613374749550582e-03  2.6715491638779018e-03  5.4926736635577730e-04  3.1666469441521006e-03  3.2538840751691081e-04  1.8941003437714194e-03  2.6338826888858552e-03  1.8927593646240587e-03  2.0764097698456126e-03  1.9934213490106875e-03  2.0544683667687376e-03  1.9931830410805569e-03  2.0073690136467241e-03  5.8162467405975418e-04  1.8419903986334001e-03  1.8286390343873937e-03  2.4185229394682547e-03  2.1241080890372554e-03  1.0491123434523129e-03  1.8696308309436996e-03  2.4040855697144261e-03  2.0346050561674996e-03  1.6396041222098284e-03  4.3895600153454261e-03  6.3945472138272272e-03  2.0258787554979650e-03  2.8732779462393274e-03  2.2451451862821811e-03  2.1505132725069607e-03  2.1605028695400076e-03  2.0762942229128906e-03  1.9174023176534198e-03  2.0662666265293503e-03  1.3927804180612863e-03  1.1736771369000457e-03  2.2209223892807003e-03  1.4803671635494617e-03  2.3468563399663815e-03  2.2775704827194643e-03  2.2367032734742411e-03  3.3012653000518638e-03  1.8970816273754985e-03  1.9808183476089161e-03  2.6136053655240635e-03  1.5131409782584402e-03  2.5924847357866555e-03  2.9751074703984479e-03  1.9108270821957523e-03  5.7948692444501678e-03  2.2716643805169414e-03  2.2711715270448021e-03  3.1714880192399509e-03  2.2115754186424548e-03  3.5489781143601714e-03  1.9210880659455323e-03  2.8790020287296227e-03  2.1247863774778355e-03  5.1733894625944547e-04  1.0512714631662630e-03  2.0148846656164294e-03  1.7527034570095127e-03  2.2219799809246143e-03  5.1680356930453833e-04  1.9539375624931022e-03  2.1294940191083998e-03  4.9982181474749865e-04  1.8037473034416293e-03  1.7992644202521064e-03  5.0715274818172932e-04  2.8651916816211406e-03  2.0781836438945327e-03  2.0048416657726842e-03  2.0218791501768868e-03  2.0008102128923236e-03  4.0773831524155094e-03  2.0124037165926340e-03  2.0389731125675351e-03  1.8829084728600642e-03  1.9296411077406592e-03  1.8935361623387923e-03  1.8897495050936100e-03  1.9696744516105539e-03  9.8023096989728717e-04  1.9064016056323258e-03  1.9563469713411376e-03  3.5413437055633852e-04  2.2416319669174224e-03  2.2982947179198865e-03  2.0826549410995808e-03  2.1485865903078153e-03  2.8048273158624223e-03  4.2110144511843736e-03  4.2434067790211184e-03  2.0247078145916747e-03  3.2099259564378287e-04  3.3054825534407803e-04  3.0066933722229945e-04  2.9686502544807669e-03  3.1616513860085229e-04  1.9373536935579675e-03  4.2756077511377777e-03  1.3923684335301930e-03  1.9607919960258316e-03  4.6885114669385531e-04  5.4626312812274132e-04  2.1322850655623622e-03  2.1269905490823139e-03  3.1362554208776974e-03  1.9359428799217741e-03  7.8063748777163020e-04  2.8972817827545246e-03  6.9531795336148794e-04  2.8388273574794409e-03  3.7820378997022565e-04  3.4451369482289498e-04  1.9546810667249309e-03  2.0341350942812810e-03  3.5126930182576804e-03  2.0480883528344509e-03  2.1005529758189607e-03  2.0596184322387969e-03  2.2390307619713020e-03  2.0016808254284192e-03  2.0085003431411634e-03  2.0165967916980694e-03  3.9811659195451736e-03  2.0847179620702570e-03  1.9072994905195582e-03  1.8889575805652208e-03  4.2296228257616133e-03  1.5242720171361130e-03  2.1021939261799683e-03  1.7935710750254621e-03  1.9827390155260035e-03  2.3126332754381108e-03  2.2092922077810283e-03  2.7839308451503932e-03  3.9119191731336930e-04  1.9363070165598381e-03  3.1859617620772857e-04  2.2733623603764059e-03  3.1682276709552397e-03  3.7977755541990458e-03  2.1125988465810555e-03  1.993847519916426