<?xml version="1.0"?>
<VTKFile type="UnstructuredGrid"  version="0.1"  >
<UnstructuredGrid>
<Piece  NumberOfPoints="2446" NumberOfCells="4585">
<Points>
<DataArray  type="Float64"  NumberOfComponents="3"  format="ascii">0 0.41 0  0 0 0  2.2 0 0  2.2 0.41 0  0.2404508497187474 0.2293892626146237 0  0.25 0.2 0  0.2404508497187474 0.1706107373853764 0  0.2154508497187474 0.1524471741852423 0  0.1845491502812526 0.1524471741852423 0  0.1595491502812526 0.1706107373853764 0  0.15 0.2 0  0.1595491502812526 0.2293892626146237 0  0.1845491502812527 0.2475528258147577 0  0.2154508497187474 0.2475528258147577 0  1.1 0 0  1.1 0.41 0  0 0.205 0  0.55 0 0  0.55 0.41 0  0.275 0 0  0.275 0.41 0  1.65 0.41 0  1.65 0 0  0.8250000000000001 0.41 0  0.8250000000000001 0 0  1.375 0 0  1.375 0.41 0  1.925 0 0  1.925 0.41 0  1.5125 0.205 0  1.7875 0.205 0  0.6875 0.205 0  0.9625000000000001 0.205 0  1.2375 0.205 0  2.2 0.205 0  0.4687002074688797 0.2068568464730291 0  1.99375 0.2152743902439024 0  2.0625 0 0  2.0625 0.41 0  2.2 0.3075 0  0.4125 0 0  0.4125 0.41 0  1.7875 0.41 0  1.375 0.1486128048780488 0  1.5125 0 0  1.7875 0 0  1.5125 0.41 0  0.8250000000000001 0.2613871951219511 0  0.9625000000000001 0.41 0  0.9625000000000001 0 0  0.6875 0.41 0  0.6875 0 0  0.1375 0 0  0.1375 0.41 0  1.2375 0 0  1.1 0.1486128048780487 0  1.2375 0.41 0  1.65 0.1486128048780487 0  1.126715909090909 0.2793064024390244 0  1.676715909090909 0.2793064024390244 0  0.8517159090909092 0.1306935975609756 0  1.348284090909091 0.2793064024390244 0  0.34375 0.3032389320646208 0  1.894702181800738 0.1282910975492754 0  2.092797818199262 0.1282910975492754 0  1.85625 0.3075 0  0.61875 0.3075 0  0.61875 0.1025 0  0.3648540804333487 0.1240075933101478 0  0 0.3075 0  0 0.1025 0  2.099172119769978 0.25625 0  0.48125 0.09238439620688085 0  0.5781001037344399 0.2059284232365146 0  0.48125 0.3196743479159776 0  0.7265881057911006 0.3055240343720796 0  1.99375 0.08395950269330846 0  1.459960956013612 0.3075 0  1.569025960719943 0.2986889805672169 0  0.75625 0.08213100772579164 0  1.03125 0.3278689922742084 0  0.923871252904788 0.3078247185783941 0  1.959375 0.3126371951219512 0  1.749222215368287 0.1025 0  1.275777784631713 0.1025 0  2.2 0.1025 0  1.225938124459196 0.3075 0  1.550777784631713 0.1025 0  1.000777784631713 0.1025 0  1.44375 0.07430640243902442 0  1.16875 0.07430640243902437 0  1.899250267340833 0.2229966846119207 0  0.1020898364287272 0.3140258291809757 0  1.766482954545455 0.2934032012195123 0  0.3405058858996321 0.2119987970531874 0  0.7710785630958338 0.1710968191298857 0  1.046078563095834 0.2389031808701144 0  0.2 0.3400647632937836 0  1.421109702350723 0.2261157654379721 0  0.2800464974185557 0.08982544815605742 0  0.098916018031319 0.09171660955420841 0  2.13125 0 0  2.118919042110979 0.3422084711244843 0  1.30625 0.41 0  0.89375 0 0  1.597888256393107 0.2173787389261347 0  0.20625 0 0  1.829299675393195 0.07400700849299596 0  1.71875 0.41 0  1.16875 0.41 0  2.038220665644273 0.332420740103091 0  0.34375 0 0  0.417496017710808 0.2696595573092803 0  0.2 0.07687845740457822 0  0.9295982307099278 0.1343158415898188 0  0.07390688010811153 0.1697064032433452 0  0.5238366813727013 0.2578302467013575 0  0.05452951551825875 0.25625 0  0.5229630068078351 0.1548816096928243 0  1.452769549894695 0.1548122580621249 0  1.369219062229598 0.07430640243902442 0  1.30625 0 0  0.8504409521244898 0.3356935975609756 0  0.8821881244591965 0.205 0  1.720943423819132 0.1714577452753128 0  1.157188124459196 0.205 0  1.094219062229598 0.07430640243902437 0  1.03125 0 0  1.304056576180868 0.1714577452753128 0  1.67579304192913 0.07430640243902437 0  0.2751941921308361 0.3346083473122598 0  1.209670467133757 0.1362100266964769 0  1.025335513626278 0.1700681449722324 0  0.7562500000000001 0.41 0  1.58125 0 0  0.7567170593862014 0.2409196493502535 0  0.6926714215682891 0.1272249611432207 0  0.4139715849905988 0.3397932387114203 0  0.9840787304190477 0.2717749043358119 0  0.06875000000000001 0.41 0  0 0.35875 0  0.9281250000000001 0.06276726142697993 0  0.5507396469029935 0.3219409231578227 0  0.5504468037989405 0.09136885600634273 0  1.58125 0.41 0  1.631724228912893 0.3381867502687533 0  1.825608881788174 0.14499488549201 0  1.85625 0 0  1.44375 0 0  1.44375 0.41 0  1.85625 0.41 0  2.13125 0.41 0  0.7562500000000001 0 0  0.89375 0.41 0  0.4812500000000001 0 0  0.34375 0.41 0  0.4812500000000001 0.41 0  0.20625 0.41 0  0.06875000000000001 0 0  1.16875 0 0  0.61875 0 0  0.61875 0.41 0  1.03125 0.41 0  1.71875 0 0  1.99375 0 0  1.99375 0.41 0  1.340625 0.3489494290853124 0  1.134375 0.3489494290853123 0  1.700180620188976 0.3438659752031281 0  2.135782184673599 0.07126652247502523 0  1.668441847249787 0.2129203728327609 0  1.295782514339747 0.2378437748815763 0  0.8233075729931248 0.06842334294821524 0  1.409375 0.3520314716057996 0  0.403505597322782 0.182067236678212 0  0.378125 0.05794951541303489 0  0.3043468223249023 0.1518321115979534 0  2.129248544730567 0.1906135162504124 0  2.060771381434487 0.1989445750470348 0  2.013252586573865 0.1496169464686054 0  1.942766402200229 0.1734448904596831 0  1.895522487186454 0.06076163953489683 0  2.069553871656643 0.06605731020975725 0  1.274680914880868 0.3520219391081363 0  1.614713220494657 0.09473434380863296 0  0.7899021319497519 0.3149123934144827 0  0.69518737419149 0.0634051089053758 0  0.2971740475496061 0.2592172353407536 0  1.72990325744076 0.2380068107952482 0  1.356580098625191 0.2120393231351682 0  2.034370752044885 0.2668681600792073 0  1.51768709249349 0.3426260931494756 0  1.561883724969884 0.1650446847858835 0  1.197344062229598 0.2523725417393646 0  1.804085235518364 0.3468178408964637 0  1.817887819205233 0.2589243285818559 0  1.905897727272727 0.3485060975609756 0  0.6719798073392919 0.2688965171178177 0  0 0.05125 0  0.653125 0.35875 0  0.6396896119294488 0.1627615407790282 0  0.4274150154087412 0.1242548552168279 0  1.192836486056382 0.3562350748565544 0  0.8279124365364005 0.183856489168822 0  1.097485222388854 0.2083571153401724 0  1.28257088594801 0.2944411014911587 0  1.474860187679412 0.2504218616229368 0  1.406767003493824 0.2829282258560709 0  0.446875 0.04619219810344041 0  0.515625 0.04585361801037557 0  0.592043440706648 0.05125 0  1.845656689180403 0.1998310418452388 0  2.144958525570388 0.2909790873294231 0  0.6171090763650112 0.2492366900333857 0  2.2 0.15375 0  0.5145586920831158 0.3648371739579888 0  1.57794966442982 0.3540357145964566 0  0.721875 0.3633107922168974 0  0.0496154796471391 0.333125 0  0.5843750000000001 0.3662560860076676 0  0.5810878747760798 0.1474002776121195 0  1.508991196088596 0.1421783375065625 0  0.8840670607017558 0.2640994375393898 0  0.09776612425612034 0.2204896805326566 0  1.50436820029908 0.06143401634903343 0  1.223857000523521 0.0823554862453532 0  1.153316824384777 0.1289850171317837 0  2.148922302309752 0.1258841779285271 0  0.309375 0.04312325590431198 0  1.621993280276081 0.2841214267927899 0  1.550118654119087 0.2461998729100966 0  1.327182649291491 0.1216967252533594 0  1.051977450479407 0.1221382572915816 0  1.753125 0.04556020050186112 0  1.271875 0.04556020050186116 0  0.9816084133102366 0.05126138213476004 0  1.039051841454368 0.0572224914831029 0  0.9719230514536006 0.3480477870845102 0  1.94956388244759 0.1180512551534177 0  1.949997712993411 0.04965831614304109 0  1.771961817615021 0.1530278789497521 0  1.909246823951428 0.2812757146784527 0  0.2459536687882397 0.04668633953831142 0  1.948575539857022 0.2445328248721197 0  1.697271520964565 0.1233917627620729 0  0.7964897648514618 0.1211426571931604 0  1.065625 0.3689344961371042 0  1.085849084308977 0.3170853572226867 0  0.4702981435440001 0.260434880697798 0  1.577403511714593 0.05463601888079143 0  0.05622663515370135 0.05493816910862376 0  0.3267207591099919 0.3566194660323104 0  0.9003051618565143 0.3564049499960621 0  1.751571320346033 0.3651102912045228 0  0.1583785085108421 0.2994699345738728 0  0.1455283439499995 0.3542795598723423 0  2.2 0.35875 0  0.2347662494194072 0.298325008655211 0  0.1527284455616188 0.1065771775690181 0  0.1382139529076665 0.05427454456341477 0  0.8749341636311069 0.05110114999892954 0  0.643661668713109 0.05693499781019222 0  1.466879772203159 0.3611261772912453 0  1.990280163552011 0.3564754268533217 0  1.17471064520912 0.2990917256188288 0  0.5202693090594349 0.206382495511728 0  0 0.25625 0  2.2 0.25625 0  2.2 0.05125 0  0 0.15375 0  1.853978576207987 0.35875 0  0.9787513713939683 0.1487523696999336 0  0.240625 0.3722153812029779 0  1.515638456102889 0.2882700110184686 0  0.09048297387599738 0.3637717362208066 0  2.150453692751374 0.2387066338105111 0  1.323782677156475 0.04897634338873398 0  0.8074131292871642 0.3624701995505916 0  1.409375 0.03715320121951221 0  1.406484531114799 0.1087852750766809 0  1.134375 0.03715320121951218 0  1.627401732573545 0.04552157221025036 0  0.1170173172005315 0.1427610859166811 0  2.045405893604797 0.1105340662939892 0  1.255408269734577 0.1577307500159216 0  2.028125 0.03707597992059326 0  0.4743610090857199 0.1421513964721819 0  0.9354010469015898 0.250631300585664 0  0.04420832937638274 0.128125 0  0.8922386349349938 0.0992956419364831 0  0.1197849154434487 0.2663398672460083 0  1.248258025468107 0.2565907092181813 0  0.3746885856929528 0.370723531618974 0  1.203125 0.0366132337404304 0  0.5724622277005015 0.2751253816079333 0  0.3365425205162783 0.08395777655057959 0  2.072662025974815 0.2975086504196739 0  0.4581080832182547 0.3648371739579888 0  0.3874522734668214 0.2295447548840689 0  0.7827853612484443 0.04106550386289586 0  1.887722846421017 0.1760882698830035 0  1.472640588990488 0.1118278026240017 0  1.865937103925594 0.2604137786483804 0  1.463913572748262 0.2030442564990043 0  1.376426316059077 0.3186741374914345 0  0.6641993820150034 0.3141688596240831 0  0.2943117490824315 0.2130987422685822 0  0.3478153998082709 0.1666571081082676 0  0.3427990510599805 0.2575950027870776 0  0.7997118993855807 0.2216171933356366 0  
[...]
<PointData  Scalars="f_9-1"> 
<DataArray  type="Float64"  Name="f_9-1"  format="ascii">6.2711187190930590e-04  1.6162423352383137e-04  1.4835637175700360e-03  1.7495061067094625e-03  2.1093446574082103e-03  1.6211152505638297e-03  9.1363616243024331e-04  3.9672479716726459e-04  3.2345066967752256e-04  3.7190382919218955e-04  4.7696220796775054e-04  8.3531483515608413e-04  1.5762129778524709e-03  2.1220307742495885e-03  1.6517903990723500e-03  2.2663208634617414e-03  3.4595750202343859e-04  2.7846870230695373e-04  3.8757968332150694e-03  1.7659271105114141e-04  3.9449996154251200e-03  1.9803447977762142e-03  1.6957226432793003e-03  3.0959373104685185e-03  1.2156552152388191e-03  1.7217181939093982e-03  2.0490797697384835e-03  1.6042612253876203e-03  1.8800907341942634e-03  1.9131720217670874e-03  1.9380821810512042e-03  1.5571484135188697e-03  2.5521483535486307e-03  1.7329903525391034e-03  1.8372160866075328e-03  2.4357040680528064e-03  1.8084145999351033e-03  1.5464203585674873e-03  1.8049963417940307e-03  1.8167323735413206e-03  1.9508854911796486e-04  4.1247741784918614e-03  1.9337766036989907e-03  1.9926287059753227e-03  1.7213843204640070e-03  1.6367627102488707e-03  2.0166035762291994e-03  1.6458358353833671e-03  2.4344172700206737e-03  1.3364738488689867e-03  3.4722666771045212e-03  6.6241755576799900e-04  1.6643041843870815e-04  2.2713480420727813e-03  1.7514400100473303e-03  1.7725127458851754e-03  2.1514169423472395e-03  1.8238992243625014e-03  1.9779683828218754e-03  1.9776856451969964e-03  2.0182333505337200e-03  2.1223330191693225e-03  3.5985971881349541e-03  1.7085365831495264e-03  1.7886622073356199e-03  1.9290324335097578e-03  3.2469014452000478e-03  1.0559223028084341e-03  3.3454448395407846e-04  4.9867987897566821e-04  2.1054179191419016e-04  1.8675943726016472e-03  5.7717147747366317e-04  3.3093206464483581e-03  3.9682831355449663e-03  1.8192279461862785e-03  1.6935288589540194e-03  2.0628772778346679e-03  1.9749311577863054e-03  9.9252223365831256e-04  2.1082852577338101e-03  2.7545490411096229e-03  1.8913899994203076e-03  1.8060690956253711e-03  1.8438127253447318e-03  1.6434663011630427e-03  2.0310751446596565e-03  1.7553727523406152e-03  2.0086183794531852e-03  1.7597214897984918e-03  1.7564080380990635e-03  1.8416321585121207e-03  4.6637917600940602e-03  1.9725699023036771e-03  1.3644295413134560e-03  9.8223510022681527e-04  2.3775406277148129e-03  4.9154755535383626e-03  2.1075380797960248e-03  2.4280369527730289e-04  2.0974057756619440e-04  1.5049201660783003e-03  1.8138470476525841e-03  2.0799526210685329e-03  1.2867667620052748e-03  1.8652525661871492e-03  1.7197255156825841e-04  1.6795549632682436e-03  1.9571402599419183e-03  2.2316761789901948e-03  1.8610746168185345e-03  1.8243618102675041e-04  2.8488056507101241e-03  2.1869441374222423e-04  2.3674880346091511e-03  2.9343829530256959e-04  3.6311651433201561e-03  4.5819651044214885e-04  2.6241546071856386e-03  1.9176703448224744e-03  1.8350369933850877e-03  1.7346869702900374e-03  2.9667132159046511e-03  1.8297504094117122e-03  1.8982481223986699e-03  1.7691774818550847e-03  1.5887032036154688e-03  1.4789772290250776e-03  1.8732068768535827e-03  1.7750799303720441e-03  4.3993863111394197e-03  1.7362882535111356e-03  2.4013305059438763e-03  3.3406961020930087e-03  1.7153171728312036e-03  1.0148552826300429e-03  8.0957360213325424e-04  4.0298795536317586e-03  2.4647111436039283e-03  9.5911718080083773e-04  5.6501280674306096e-04  1.8197782781544745e-03  3.9323438029954432e-03  1.0306129787989752e-03  2.0009456559397431e-03  1.9931980687687787e-03  1.8123078291222595e-03  1.6187996592235587e-03  1.7188227023799151e-03  2.0314775531698960e-03  1.9098341418790031e-03  1.7686938494522627e-03  9.8249823247141283e-04  2.7352660778221321e-03  2.2501780167663449e-04  4.1014347726852215e-03  4.0518016019981647e-03  3.4178564085433657e-03  1.6291785887254565e-04  1.7382619193942708e-03  4.0129743693615821e-04  3.6443878639978960e-03  2.3023917082893646e-03  1.6655507069192352e-03  1.5794642951418858e-03  1.8448231257838790e-03  2.0833829398697848e-03  2.0656121587154875e-03  1.9786807785819320e-03  1.6194821157498496e-03  1.9029460242100736e-03  1.9890005568539734e-03  1.5883764221600813e-03  2.0557170630781576e-03  7.8319698988326032e-04  2.0109962231366259e-04  7.6813333765217830e-04  1.8538558665404734e-03  1.8363070472218988e-03  1.7706662329161195e-03  1.7502028127732074e-03  1.6439246028300172e-03  1.6532877359596249e-03  2.1346559751045718e-03  1.7799174430599240e-03  2.3152838725426792e-03  5.8189805206174854e-04  2.5802970506707047e-03  1.9673226640506834e-03  2.0692139875268267e-03  1.8696258007330749e-03  2.0124302631239765e-03  1.7924042668286185e-03  1.7911264694544077e-03  1.9442544028615081e-03  1.9481876212323408e-03  1.9076874957376548e-03  1.9010087993138454e-03  1.7420251722806494e-04  3.3208810104077622e-03  2.0810369532604451e-03  3.9333868581916499e-04  2.1509264361659224e-03  1.4000055762349234e-03  2.0862069278671518e-03  2.1018592176125978e-03  2.0562118052916000e-03  2.1158831872478169e-03  2.2471053772160285e-04  3.4089329533629209e-04  4.2017650208691959e-04  1.8753174153840677e-03  1.8413836267956822e-03  3.0003978223323499e-03  1.7715239891498492e-03  4.0219355554407714e-03  2.0018669691115676e-03  3.1298695124571513e-03  8.0712838758800547e-04  3.7619327543909615e-03  2.5216116156485282e-03  1.7924179356564205e-03  2.4045936236379438e-03  4.8650068395285980e-04  1.7333705951891509e-03  1.8130079446519785e-03  1.6875629919346580e-03  1.7584490770346992e-03  1.8987525517540974e-04  1.9630791844422405e-03  1.9325683859023023e-03  1.9126470964854916e-03  1.8547528213971101e-03  1.6897318153550158e-03  1.8016523552739777e-03  1.5369522717089807e-03  1.5078609534460645e-03  2.4007415674244044e-03  1.7066100254484878e-03  1.6344152980662934e-03  1.8835691177240090e-03  1.8923901992190474e-03  1.9092351788109374e-04  1.8392863669727927e-03  1.8388715085438352e-03  1.4482302809180356e-03  2.1736258949646603e-03  2.0122135285553814e-03  3.1610909852900913e-03  1.7411935545797240e-03  1.7784667445917094e-04  4.1887843232776617e-03  2.8308372579040775e-03  1.9554017895633746e-03  5.5501336955537739e-03  4.0286418981433075e-03  1.7748716198493233e-03  3.8672876101623383e-03  2.4417273165763695e-04  1.8559240714514851e-04  1.6472799748180676e-03  4.4616823592935243e-04  2.0306913274846382e-03  1.8707220789879735e-03  1.9012936943677474e-03  3.1893972914185222e-03  4.4064193217930897e-04  1.8424510232052517e-03  1.5267993092306646e-03  2.6803925298081428e-04  1.9234222703816777e-03  2.4823999755160912e-03  4.0821928060935202e-03  2.0077641060175806e-03  1.6326174599462888e-03  1.8614020162237171e-03  1.8000440554527745e-03  3.1206573892779851e-03  1.7356063467575866e-03  1.8834001145709379e-03  1.7002030835230686e-03  1.7362072881175528e-03  2.7336701684134603e-04  1.7548059671392210e-03  1.7491761273565820e-03  1.6021382581469991e-03  1.3848293317139076e-03  2.6024006658177793e-03  2.3850111629768116e-04  2.2521881898184474e-03  3.5263160809174414e-03  1.9002187058180145e-03  4.1333021511484594e-03  1.7717494357595745e-03  3.7092526444995381e-03  2.2924056725792281e-04  1.8639395772360914e-03  4.0975124392902337e-03  1.6671898878073833e-03  1.1458264302242067e-03  1.7841187353516879e-03  1.7864297442950143e-03  1.9091182446883044e-03  2.0106892809839271e-03  2.0920673549266943e-03  2.5882084145393484e-03  1.7206941432585988e-03  7.0546091996772915e-04  2.4342397204017169e-03  1.1046923722783022e-03  1.9832807085240749e-03  1.9697902972379729e-03  1.5603123327218205e-03  9.1174246360930687e-04  7.9765135283597899e-04  2.5396110158912829e-03  2.2200648760004613e-03  2.1839225385379907e-03  2.0660856608404952e-03  4.4546920824293032e-04  1.8249631083607761e-03  1.7879595217316199e-03  2.4211236155144947e-03  1.2744413269052486e-03  1.9519311867844881e-03  3.5310442337522976e-04  1.8565059052394878e-03  1.8051271776227062e-03  1.7861223232683481e-03  1.8192943547657181e-03  1.7100038754922490e-04  8.4882579986615030e-04  1.9911973213152180e-03  1.7890782666235227e-03  1.8810779054049453e-03  1.6925912428182455e-04  2.1249758399144725e-03  1.6900386708158658e-03  1.7207363473598525e-03  1.8410936471842077e-03  2.0091964160216425e-03  2.9213078854392130e-03  1.6811650222155043e-03  1.7124230944430645e-03  2.3497724430434339e-03  2.2607470651550090e-03  1.5184420517886006e-03  1.7703398241791857e-03  6.9023255770668101e-04  6.3313295147276007e-04  3.1631630278375444e-03  2.2180138207316324e-03  1.9691477464326211e-03  1.9167677530762981e-03  1.6599328378101132e-03  1.6811258454701176e-03  1.7194905798514461e-03  1.8842496155701148e-03  1.8316475069321142e-03  2.7148914401798734e-04  1.9218533626612342e-03  1.5656330716287462e-03  1.9742835194780837e-03  1.9830978092625290e-03  2.0608257348416841e-03  2.4020417610231211e-04  2.9437947336198840e-03  1.8034769720011088e-03  2.5694754235246059e-03  1.8589806695512375e-03  2.1684017710577250e-03  1.8332699727233199e-03  1.7262658564934140e-03  1.8028686992804701e-04  2.1467018344817246e-03  1.2882848815085133e-03  1.9265637025632236e-03  1.3920045510069706e-03  3.5527511173277775e-03  3.7182005792411174e-03  9.3911243153731801e-04  1.6661044510757935e-03  1.7166703879883331e-03  1.9689179256503456e-03  1.7278182973315436e-03  3.2555125001334394e-04  1.8225476254647686e-03  2.1185187840060188e-03  1.6251129597293714e-03  2.5016062510988474e-03  1.8957819286526296e-03  1.6350702464776557e-03  1.6123617738954762e-03  1.6682938296903032e-03  1.7508768743811707e-03  1.7918808711580362e-03  1.7178623527135399e-03  1.8062244562166855e-03  1.6204391363679093e-04  2.8858990467112546e-03  3.6543049827122884e-03  6.2491709090613202e-04  1.8354636172854002e-03  1.9713330532212950e-03  1.3973069403553705e-03  2.2835485441021954e-03  1.9020040630226237e-03  3.4559278629749649e-04  4.6474552494314581e-03  1.7286453647013631e-03  6.5425830126467359e-04  2.5723892327087134e-03  2.8941859684693226e-03  1.8886069655277102e-03  2.8436393038338837e-04  1.8642439845059598e-03  2.0230407019617281e-03  1.6832575871705065e-03  2.0996265105761519e-03  4.1387232752903647e-03  3.6509664850592123e-03  1.9909122310086697e-03  4.0472068792265581e-03  2.7957221699540110e-03  2.5930547475312930e-03  1.4811232845013123e-03  3.1071835433657937e-03  3.6208547819988995e-04  3.7451907290261158e-03  3.5388715955926037e-03  2.9757191435418884e-03  4.4505638172033448e-04  1.7265218640086198e-03  1.9415861462630311e-03  1.8336508482771671e-03  1.8642815501250247e-03  1.8432510583517312e-03  1.9261339186943509e-03  1.7560724972217490e-03  1.6495291345368333e-03  1.8603845918454735e-03  1.9524192232662004e-03  1.7415523877422109e-03  2.4981812218562654e-04  4.0590371761858252e-03  1.7705912136739106e-03  1.7832737022331648e-03  2.0541743054185328e-04  4.6978220634159166e-03  1.9854454111906459e-03  1.9891846740949983e-03  2.6156601695690239e-03  2.7705062034753044e-04  2.6364884571184557e-03  1.8982901001693612e-04  3.0882842477221251e-03  1.9922669750306109e-03  1.8125296268149645e-03  2.0131714950606234e-03  1.2376572283981297e-03  1.6265307446927427e-03  2.5950246352454795e-03  1.8624539422740758e-03  1.8414000779856212e-03  1.8746881479097702e-03  1.2423780927493153e-03  1.8536595977876240e-03  1.8653612328745064e-03  1.8537409789260858e-03  1.9606950511872668e-03  1.7409599479924068e-03  2.4812224378473430e-03  2.2629770591674429e-03  2.5557865112361710e-03  5.4317214359951929e-04  1.7914439568845299e-03  2.0728430707494102e-03  1.4386761344621322e-03  1.4676253646226554e-03  1.2635040144014140e-03  1.3837156250265383e-03  1.6504024797931850e-03  1.7265821976575576e-03  1.4362673831835894e-03  1.7913026924206573e-03  1.7929979074670587e-03  1.2771953927153234e-03  1.7215779969563833e-03  2.3891779226739695e-03  1.7395607361470151e-03  1.8895515347934454e-03  3.4746587083443973e-03  1.9347048221110449e-04  4.1212848450683758e-03  2.2869635023889429e-03  1.1629430490287657e-03  2.5522133183103236e-03  1.3721566811936755e-03  2.1932942826808173e-03  2.2526222325375844e-03  2.0920848971662785e-03  2.0605394433411400e-03  2.0581712762446488e-03  1.9437993016890932e-03  2.0323299504112478e-03  1.8138167350132176e-03  2.1960296555139738e-03  3.2332193770131770e-03  3.9267404880780170e-03  9.5172759191094493e-04  3.9090199784575798e-04  1.9937544529454501e-04  1.8700008229463459e-04  4.0188816727917635e-03  3.8874068777154992e-03  3.7065651249723829e-03  3.4515792130239875e-03  1.8097003024794673e-03  1.7814732514262422e-03  2.5971151534192648e-03  6.9473381816823033e-04  2.1094882567275408e-03  1.5061597222704528e-03  2.0832191256128074e-03  1.9684299164054436e-03  1.7741912454909798e-03  1.8019979943935790e-03  1.8724928738817254e-03  2.1097348321281071e-03  2.2038965498141724e-03  1.7467403082589194e-03  2.4818047434885026e-04  1.7278764291459030e-03  1.5697805030484341e-03  1.4896840556377199e-03  1.5231556442704814e-03  1.7075291078236911e-03  1.7191420501726333e-03  2.0237734910671509e-03  1.9456306969560084e-03  2.2781595898776433e-03  1.6518550357460888e-03  3.4059709694600811e-03  2.0394464442598150e-03  8.2533145504096292e-04  1.7554550242259138e-03  1.3113466817754869e-03  4.1254448031772945e-03  2.0729625833119326e-04  4.1020193916013687e-03  1.6432822971541571e-04  3.7525369791286292e-03  1.7384139981538622e-04  1.5098442476420891e-03  5.1750335935087273e-04  1.1164943680506093e-03  1.7917617850460250e-04  3.7589626471037736e-03  3.9748552925885170e-03  3.2352123000109023e-04  2.4735434982144501e-04  3.5572731767396955e-03  1.3985574518807266e-03  1.7493383217948603e-03  1.7067963761951835e-03  1.5933696224965722e-03  1.7449380809365081e-03  1.5636540544733107e-03  1.8625668480552094e-03  1.9636553412904290e-03  1.7432879709378803e-03  1.3177864656834341e-03  1.8626966659475541e-03  1.6905212660409429e-03  2.4011039368051357e-04  2.0856309771425121e-03  2.1016549451689254e-03  2.0224644636028500e-03  1.9969134401558444e-03  2.0276599268088872e-03  1.6187331744567884e-03  2.6852678006682295e-03  2.0522609680503788e-03  2.0387044100149462e-03  1.9711210117246310e-03  1.9133586759296592e-03  1.9275370202680318e-03  2.2970852903878502e-04  1.9287143618222596e-03  1.7381245825102284e-03  1.9455876029771833e-03  1.9606927052835755e-03  1.9004228018904218e-03  2.0207723278759778e-03  2.5687707904073283e-03  2.1418205348111116e-03  2.3766346858718236e-03  3.9071721308554677e-04  3.7987964660650920e-03  1.7228785562153168e-03  3.5781150531165231e-03  1.5801337744765977e-03  1.7209772722324411e-03  1.7036056645440278e-03  3.3566197274960716e-03  2.0268825066333054e-03  1.6156033238375130e-03  2.1372778353333441e-03  1.7914953163920737e-03  1.7338506956445295e-03  2.1948241225696460e-03  1.8387245105006059e-03  1.9822748493899606e-04  2.6038205994079969e-03  1.4956183893059798e-03  2.3318163676953577e-03  1.8733118433958604e-03  1.9332831694037890e-03  2.3179608571332294e-03  1.9370623391182053e-03  1.9859024019496410e-03  1.9146861676107695e-03  1.6762653276987589e-03  1.8473051401339230e-03  3.6146234297111044e-04  2.4616007225227096e-03  1.7696470254937020e-03  1.8390604206545398e-03  2.6217778278104860e-03  1.7622264764753771e-03  1.7745432141075314e-03  2.9914835870304253e-04  1.8954675492415037e-03  2.0066506673811061e-03  2.0062692106998657e-03  2.1565071092013088e-03  3.8365288694244132e-04  1.7341306292268220e-04  1.9546943650005826e-03  1.9994179351986770e-03  1.6595121281298417e-03  1.8308236374967345e-03  1.9952452651785985e-04  1.8929776678619896e-03  2.3851212772430493e-03  7.0638174095225535e-04  3.0183752268993919e-03  1.9082304945395665e-03  2.0801614984571554e-03  1.8974413253015398e-03  1.7065986274463424e-03  2.2441841341212005e-03  1.7238528884283429e-03  1.9399119135230392e-03  1.5636009375315603e-03  2.0213215221965850e-03  9.6410542753084594e-04  1.9789457232313127e-03  3.9160896211997017e-04  1.8378229985356502e-03  1.8898362219448050e-03  1.7919809080119066e-03  1.8606549753395543e-03  1.7401370017229205e-03  1.9641022459857826e-03  1.9390468388607535e-03  1.8534459455306755e-03  1.7241901815922549e-03  1.8633390284977208e-03  1.6489238095191710e-04  1.6711386684286874e-04  1.7738678134930671e-03  1.6706416177726803e-03  2.1289213252031910e-03  3.4895003891649980e-03  4.0191073252952205e-03  2.0037077626920228e-03  1.7697851830816982e-04  4.0219337661227209e-03  3.6459749329893244e-03  1.7268845953074469e-03  2.5593105344906926e-03  2.0655685194548102e-03  4.1940792906105624e-03  1.8343918869364202e-03  1.9200784502119189e-03  2.6880163672258228e-03  3.9217148397287645e-04  3.0900207961472993e-03  1.8756947076014856e-04  1.6379309644199615e-03  1.8920985765753047e-03  1.6461702125523453e-03  1.7803152053008995e-03  1.8001291676621536e-03  1.9126518042453429e-03  1.8453159132626996e-03  2.0790086655850595e-03  7.5721332504159007e-04  1.9471375231774205e-03  1.8678952166336774e-03  1.7564356682247904e-03  1.9586050877306231e-03  1.9436153790761078e-03  1.5705085857600205e-03  2.3979036677504251e-03  1.8713216704925116e-03  1.6283756143470965e-03  4.2231333258852602e-03  6.2532039310722069e-03  1.8790286725686399e-03  2.7439392034166259e-03  2.1067345833241584e-03  2.0777344031798319e-03  2.0644606700663593e-03  1.9932423997766329e-03  1.7242768502871049e-03  1.9230133099381120e-03  1.2347121732019159e-03  7.3825517450916900e-04  2.2425811982875591e-03  9.7733708481896175e-04  1.5217081031543365e-03  2.1243006573452216e-03  2.1231830215662916e-03  2.7840912004945544e-03  1.6295183821545955e-03  1.8414263328087759e-03  2.6937832003216919e-03  2.3895624694032576e-03  3.3439691724245733e-03  2.5467645278910130e-03  1.7115030707730294e-03  5.6751993232938324e-03  2.0274640127090800e-03  2.0208584299487640e-03  3.0853640069828849e-03  2.1123934900899449e-03  3.3245643862796375e-03  1.7378039675572858e-03  2.0476851709914194e-03  1.9821842072003828e-03  5.5273739809452032e-04  5.6926159524739862e-04  1.8456104388395699e-03  1.4912382549140710e-03  1.3763277384594614e-03  5.1015435369315535e-04  1.8425871443820592e-03  1.9855278921721096e-03  3.0707041330157829e-04  1.0512174948740418e-03  1.0519829505161065e-03  3.8240738631299003e-04  2.8289285765565487e-03  1.9427170038966762e-03  1.8248002794768684e-03  1.8599335069727188e-03  1.8238714735467837e-03  3.9442031595338881e-03  1.8809107818752379e-03  1.8846936758177581e-03  2.1106001049722069e-03  1.7682913608435976e-03  1.6703319824208809e-03  1.6536950346280603e-03  1.7759653461669165e-03  1.1390344053638850e-03  1.7209933506895465e-03  1.7305678231786731e-03  2.1567747818258698e-04  1.9958546532041072e-03  2.1343003527478184e-03  2.0612119461350890e-03  2.0563207054336606e-03  1.9053491123169840e-03  4.0625367547093959e-03  4.0688503701591314e-03  1.8465539417611397e-03  1.8556494734279114e-04  1.9563204324239003e-04  1.6747744554680829e-04  2.8078351766299041e-03  1.8135829143450916e-04  1.6692360015046299e-03  4.1047083604662674e-03  8.5398960664049238e-04  1.8132763554944836e-03  3.1826533945076321e-04  3.9076735793650046e-04  1.9919216119974712e-03  1.9977420970568355e-03  3.0838224132203620e-03  1.6909244560939258e-03  6.1427888762692379e-04  2.1471258510479068e-03  5.2640024829526944e-04  2.6727274107037381e-03  2.3750306425309961e-04  2.0726115654431793e-04  1.7231655652809586e-03  1.8652541759731100e-03  3.7838008337985050e-03  1.9298375276852195e-03  1.9514309190025922e-03  1.8947470894504054e-03  2.0995207000900459e-03  1.7926591744595629e-03  1.8090341833615472e-03  1.9097589783197858e-03  3.8504323790392128e-03  1.9480407116521071e-03  1.6409493154626016e-03  1.6115192308447204e-03  3.9836620040806818e-03  6.0465397674164300e-04  1.9687466973756676e-03  1.1613775798711829e-03  1.8497883049019780e-03  2.2058810012908795e-03  2.0927634317710999e-03  2.1990979122819047e-03  2.7960373798453303e-04  1.7523240693730769e-03  1.8249632482867498e-04  2.1129062572234326e-03  3.3357927930516324e-03  3.2459183406126778e-03  1.9415116667270860e-03  1.784342838066949