<?xml version="1.0"?>
<VTKFile type="UnstructuredGrid"  version="0.1"  >
<UnstructuredGrid>
<Piece  NumberOfPoints="2446" NumberOfCells="4585">
<Points>
<DataArray  type="Float64"  NumberOfComponents="3"  format="ascii">0 0.41 0  0 0 0  2.2 0 0  2.2 0.41 0  0.2404508497187474 0.2293892626146237 0  0.25 0.2 0  0.2404508497187474 0.1706107373853764 0  0.2154508497187474 0.1524471741852423 0  0.1845491502812526 0.1524471741852423 0  0.1595491502812526 0.1706107373853764 0  0.15 0.2 0  0.1595491502812526 0.2293892626146237 0  0.1845491502812527 0.2475528258147577 0  0.2154508497187474 0.2475528258147577 0  1.1 0 0  1.1 0.41 0  0 0.205 0  0.55 0 0  0.55 0.41 0  0.275 0 0  0.275 0.41 0  1.65 0.41 0  1.65 0 0  0.8250000000000001 0.41 0  0.8250000000000001 0 0  1.375 0 0  1.375 0.41 0  1.925 0 0  1.925 0.41 0  1.5125 0.205 0  1.7875 0.205 0  0.6875 0.205 0  0.9625000000000001 0.205 0  1.2375 0.205 0  2.2 0.205 0  0.4687002074688797 0.2068568464730291 0  1.99375 0.2152743902439024 0  2.0625 0 0  2.0625 0.41 0  2.2 0.3075 0  0.4125 0 0  0.4125 0.41 0  1.7875 0.41 0  1.375 0.1486128048780488 0  1.5125 0 0  1.7875 0 0  1.5125 0.41 0  0.8250000000000001 0.2613871951219511 0  0.9625000000000001 0.41 0  0.9625000000000001 0 0  0.6875 0.41 0  0.6875 0 0  0.1375 0 0  0.1375 0.41 0  1.2375 0 0  1.1 0.1486128048780487 0  1.2375 0.41 0  1.65 0.1486128048780487 0  1.126715909090909 0.2793064024390244 0  1.676715909090909 0.2793064024390244 0  0.8517159090909092 0.1306935975609756 0  1.348284090909091 0.2793064024390244 0  0.34375 0.3032389320646208 0  1.894702181800738 0.1282910975492754 0  2.092797818199262 0.1282910975492754 0  1.85625 0.3075 0  0.61875 0.3075 0  0.61875 0.1025 0  0.3648540804333487 0.1240075933101478 0  0 0.3075 0  0 0.1025 0  2.099172119769978 0.25625 0  0.48125 0.09238439620688085 0  0.5781001037344399 0.2059284232365146 0  0.48125 0.3196743479159776 0  0.7265881057911006 0.3055240343720796 0  1.99375 0.08395950269330846 0  1.459960956013612 0.3075 0  1.569025960719943 0.2986889805672169 0  0.75625 0.08213100772579164 0  1.03125 0.3278689922742084 0  0.923871252904788 0.3078247185783941 0  1.959375 0.3126371951219512 0  1.749222215368287 0.1025 0  1.275777784631713 0.1025 0  2.2 0.1025 0  1.225938124459196 0.3075 0  1.550777784631713 0.1025 0  1.000777784631713 0.1025 0  1.44375 0.07430640243902442 0  1.16875 0.07430640243902437 0  1.899250267340833 0.2229966846119207 0  0.1020898364287272 0.3140258291809757 0  1.766482954545455 0.2934032012195123 0  0.3405058858996321 0.2119987970531874 0  0.7710785630958338 0.1710968191298857 0  1.046078563095834 0.2389031808701144 0  0.2 0.3400647632937836 0  1.421109702350723 0.2261157654379721 0  0.2800464974185557 0.08982544815605742 0  0.098916018031319 0.09171660955420841 0  2.13125 0 0  2.118919042110979 0.3422084711244843 0  1.30625 0.41 0  0.89375 0 0  1.597888256393107 0.2173787389261347 0  0.20625 0 0  1.829299675393195 0.07400700849299596 0  1.71875 0.41 0  1.16875 0.41 0  2.038220665644273 0.332420740103091 0  0.34375 0 0  0.417496017710808 0.2696595573092803 0  0.2 0.07687845740457822 0  0.9295982307099278 0.1343158415898188 0  0.07390688010811153 0.1697064032433452 0  0.5238366813727013 0.2578302467013575 0  0.05452951551825875 0.25625 0  0.5229630068078351 0.1548816096928243 0  1.452769549894695 0.1548122580621249 0  1.369219062229598 0.07430640243902442 0  1.30625 0 0  0.8504409521244898 0.3356935975609756 0  0.8821881244591965 0.205 0  1.720943423819132 0.1714577452753128 0  1.157188124459196 0.205 0  1.094219062229598 0.07430640243902437 0  1.03125 0 0  1.304056576180868 0.1714577452753128 0  1.67579304192913 0.07430640243902437 0  0.2751941921308361 0.3346083473122598 0  1.209670467133757 0.1362100266964769 0  1.025335513626278 0.1700681449722324 0  0.7562500000000001 0.41 0  1.58125 0 0  0.7567170593862014 0.2409196493502535 0  0.6926714215682891 0.1272249611432207 0  0.4139715849905988 0.3397932387114203 0  0.9840787304190477 0.2717749043358119 0  0.06875000000000001 0.41 0  0 0.35875 0  0.9281250000000001 0.06276726142697993 0  0.5507396469029935 0.3219409231578227 0  0.5504468037989405 0.09136885600634273 0  1.58125 0.41 0  1.631724228912893 0.3381867502687533 0  1.825608881788174 0.14499488549201 0  1.85625 0 0  1.44375 0 0  1.44375 0.41 0  1.85625 0.41 0  2.13125 0.41 0  0.7562500000000001 0 0  0.89375 0.41 0  0.4812500000000001 0 0  0.34375 0.41 0  0.4812500000000001 0.41 0  0.20625 0.41 0  0.06875000000000001 0 0  1.16875 0 0  0.61875 0 0  0.61875 0.41 0  1.03125 0.41 0  1.71875 0 0  1.99375 0 0  1.99375 0.41 0  1.340625 0.3489494290853124 0  1.134375 0.3489494290853123 0  1.700180620188976 0.3438659752031281 0  2.135782184673599 0.07126652247502523 0  1.668441847249787 0.2129203728327609 0  1.295782514339747 0.2378437748815763 0  0.8233075729931248 0.06842334294821524 0  1.409375 0.3520314716057996 0  0.403505597322782 0.182067236678212 0  0.378125 0.05794951541303489 0  0.3043468223249023 0.1518321115979534 0  2.129248544730567 0.1906135162504124 0  2.060771381434487 0.1989445750470348 0  2.013252586573865 0.1496169464686054 0  1.942766402200229 0.1734448904596831 0  1.895522487186454 0.06076163953489683 0  2.069553871656643 0.06605731020975725 0  1.274680914880868 0.3520219391081363 0  1.614713220494657 0.09473434380863296 0  0.7899021319497519 0.3149123934144827 0  0.69518737419149 0.0634051089053758 0  0.2971740475496061 0.2592172353407536 0  1.72990325744076 0.2380068107952482 0  1.356580098625191 0.2120393231351682 0  2.034370752044885 0.2668681600792073 0  1.51768709249349 0.3426260931494756 0  1.561883724969884 0.1650446847858835 0  1.197344062229598 0.2523725417393646 0  1.804085235518364 0.3468178408964637 0  1.817887819205233 0.2589243285818559 0  1.905897727272727 0.3485060975609756 0  0.6719798073392919 0.2688965171178177 0  0 0.05125 0  0.653125 0.35875 0  0.6396896119294488 0.1627615407790282 0  0.4274150154087412 0.1242548552168279 0  1.192836486056382 0.3562350748565544 0  0.8279124365364005 0.183856489168822 0  1.097485222388854 0.2083571153401724 0  1.28257088594801 0.2944411014911587 0  1.474860187679412 0.2504218616229368 0  1.406767003493824 0.2829282258560709 0  0.446875 0.04619219810344041 0  0.515625 0.04585361801037557 0  0.592043440706648 0.05125 0  1.845656689180403 0.1998310418452388 0  2.144958525570388 0.2909790873294231 0  0.6171090763650112 0.2492366900333857 0  2.2 0.15375 0  0.5145586920831158 0.3648371739579888 0  1.57794966442982 0.3540357145964566 0  0.721875 0.3633107922168974 0  0.0496154796471391 0.333125 0  0.5843750000000001 0.3662560860076676 0  0.5810878747760798 0.1474002776121195 0  1.508991196088596 0.1421783375065625 0  0.8840670607017558 0.2640994375393898 0  0.09776612425612034 0.2204896805326566 0  1.50436820029908 0.06143401634903343 0  1.223857000523521 0.0823554862453532 0  1.153316824384777 0.1289850171317837 0  2.148922302309752 0.1258841779285271 0  0.309375 0.04312325590431198 0  1.621993280276081 0.2841214267927899 0  1.550118654119087 0.2461998729100966 0  1.327182649291491 0.1216967252533594 0  1.051977450479407 0.1221382572915816 0  1.753125 0.04556020050186112 0  1.271875 0.04556020050186116 0  0.9816084133102366 0.05126138213476004 0  1.039051841454368 0.0572224914831029 0  0.9719230514536006 0.3480477870845102 0  1.94956388244759 0.1180512551534177 0  1.949997712993411 0.04965831614304109 0  1.771961817615021 0.1530278789497521 0  1.909246823951428 0.2812757146784527 0  0.2459536687882397 0.04668633953831142 0  1.948575539857022 0.2445328248721197 0  1.697271520964565 0.1233917627620729 0  0.7964897648514618 0.1211426571931604 0  1.065625 0.3689344961371042 0  1.085849084308977 0.3170853572226867 0  0.4702981435440001 0.260434880697798 0  1.577403511714593 0.05463601888079143 0  0.05622663515370135 0.05493816910862376 0  0.3267207591099919 0.3566194660323104 0  0.9003051618565143 0.3564049499960621 0  1.751571320346033 0.3651102912045228 0  0.1583785085108421 0.2994699345738728 0  0.1455283439499995 0.3542795598723423 0  2.2 0.35875 0  0.2347662494194072 0.298325008655211 0  0.1527284455616188 0.1065771775690181 0  0.1382139529076665 0.05427454456341477 0  0.8749341636311069 0.05110114999892954 0  0.643661668713109 0.05693499781019222 0  1.466879772203159 0.3611261772912453 0  1.990280163552011 0.3564754268533217 0  1.17471064520912 0.2990917256188288 0  0.5202693090594349 0.206382495511728 0  0 0.25625 0  2.2 0.25625 0  2.2 0.05125 0  0 0.15375 0  1.853978576207987 0.35875 0  0.9787513713939683 0.1487523696999336 0  0.240625 0.3722153812029779 0  1.515638456102889 0.2882700110184686 0  0.09048297387599738 0.3637717362208066 0  2.150453692751374 0.2387066338105111 0  1.323782677156475 0.04897634338873398 0  0.8074131292871642 0.3624701995505916 0  1.409375 0.03715320121951221 0  1.406484531114799 0.1087852750766809 0  1.134375 0.03715320121951218 0  1.627401732573545 0.04552157221025036 0  0.1170173172005315 0.1427610859166811 0  2.045405893604797 0.1105340662939892 0  1.255408269734577 0.1577307500159216 0  2.028125 0.03707597992059326 0  0.4743610090857199 0.1421513964721819 0  0.9354010469015898 0.250631300585664 0  0.04420832937638274 0.128125 0  0.8922386349349938 0.0992956419364831 0  0.1197849154434487 0.2663398672460083 0  1.248258025468107 0.2565907092181813 0  0.3746885856929528 0.370723531618974 0  1.203125 0.0366132337404304 0  0.5724622277005015 0.2751253816079333 0  0.3365425205162783 0.08395777655057959 0  2.072662025974815 0.2975086504196739 0  0.4581080832182547 0.3648371739579888 0  0.3874522734668214 0.2295447548840689 0  0.7827853612484443 0.04106550386289586 0  1.887722846421017 0.1760882698830035 0  1.472640588990488 0.1118278026240017 0  1.865937103925594 0.2604137786483804 0  1.463913572748262 0.2030442564990043 0  1.376426316059077 0.3186741374914345 0  0.6641993820150034 0.3141688596240831 0  0.2943117490824315 0.2130987422685822 0  0.3478153998082709 0.1666571081082676 0  0.3427990510599805 0.2575950027870776 0  0.7997118993855807 0.2216171933356366 0  
[...]
<PointData  Scalars="f_9-1"> 
<DataArray  type="Float64"  Name="f_9-1"  format="ascii">1.7959932811339877e-04  3.1291395844479990e-06  5.3039064966599612e-19  1.1187619528028536e-18  1.6068175321125075e-03  1.0792766802596220e-03  5.5470847537605005e-04  1.4381904537475346e-04  5.8842850034395184e-05  8.6841395172016045e-05  1.6073990079907866e-04  4.5820125792385663e-04  1.1455348278357595e-03  1.7017758124301592e-03  1.6141437733281450e-06  1.5021326296879323e-05  5.6888488702821356e-05  1.4867608603091329e-05  2.5667809471489277e-03  6.6135109673939245e-06  3.5114213342501044e-03  4.0153491553527866e-11  1.1308092991546982e-11  6.1527630171602521e-04  2.3808439294488186e-05  1.0577070333174140e-08  5.0992020611476497e-08  3.9230136993469351e-15  8.7593391844297800e-15  1.6138216183599816e-08  9.8973724818032524e-12  1.2328350298291496e-03  3.2637832668207370e-04  5.8687023666517823e-06  2.2445906832374333e-17  1.8750515656436445e-03  1.7563334296348759e-14  4.5669992948665311e-17  8.1264268806093208e-17  1.5736287378161192e-17  1.2810605170555616e-05  3.5567728951895394e-03  5.5301576508825195e-13  2.4202313593627246e-07  4.3947702768231610e-10  2.0548852496537072e-13  1.6822794792438139e-09  1.4779934394241055e-03  1.2852259099976004e-04  8.7690696350535440e-06  1.4797223604396403e-03  2.1187618451189798e-05  3.9165013355563338e-06  1.8021416258420435e-03  1.7484629750859953e-07  3.2687956606220100e-05  1.1053021034375450e-06  3.1977297067733712e-10  4.9187206874546568e-05  2.3614891156026065e-10  3.1063474748684489e-04  7.7971989697160311e-07  3.1812233769781860e-03  2.2628856052680257e-13  4.0428892503775084e-16  1.0624650892689829e-12  2.9842821247681815e-03  8.4807656467927127e-05  2.8562391213829717e-04  1.0509125504624042e-04  1.3157228437600411e-05  5.6636897976480857e-16  9.2792848754457127e-05  1.6937067464326675e-03  3.4357006891583982e-03  2.3418249455709585e-03  5.6724985602884738e-15  5.5122547674374586e-08  3.8665490828186970e-09  1.0998605577584579e-04  1.6261136194713443e-04  6.4735873631932756e-04  4.0395907294919242e-14  1.2291913768459484e-11  9.6380521212346166e-07  1.0561492113829607e-17  8.1231135224715914e-06  2.4268469349449671e-09  5.6056282679239357e-05  1.8344838677161887e-08  3.5097163855090000e-06  3.5671803968438462e-13  4.2354793390780550e-03  1.7071354946399387e-11  1.4070972773671082e-03  6.7783958896887211e-04  1.4857355582115255e-04  4.5293036694628976e-03  1.5108034969973188e-07  4.2833242696344827e-05  1.2458425109739963e-05  3.5528279302556767e-18  1.2350268327181238e-16  2.5006531204673722e-07  1.5750105748362310e-05  1.9461846889430237e-09  5.1017144132359515e-06  7.2874206834136497e-13  5.6885980118718854e-12  4.3432359791590376e-06  2.1972091857337773e-15  9.0924811998134251e-06  2.6540594933457578e-03  1.6722118659889342e-05  1.9240285220516488e-04  3.6042629024664277e-05  2.9595824445614338e-03  1.1348109240527177e-04  4.9787557742544161e-04  4.5853163069702847e-08  9.0824815441063408e-08  4.0439869486522481e-08  1.0540878131527960e-03  6.8540695390891231e-04  5.4375266087298746e-11  2.3385606008581435e-05  1.0462914693173862e-05  4.2717046922565356e-06  1.2856625979191521e-06  5.6452371746185163e-11  4.0095846246227919e-03  5.0027500808141909e-06  1.1326259538447131e-04  9.9987925350078911e-04  8.0060411290586976e-11  1.7658076426264942e-03  1.9321156544202623e-04  3.6112810995476523e-03  3.5381877488648044e-04  5.0563935424893216e-04  1.3267325889803288e-04  4.7647740832903025e-05  3.2449983532477082e-03  7.4100409812379871e-05  2.6595708010285546e-10  4.6455387951709876e-10  2.1817111635771106e-12  2.7869445987981509e-14  1.9383188194780661e-09  1.0429590896656319e-08  8.2368973222097119e-14  8.1153069075584549e-18  2.5454035346505186e-05  2.9986065670847866e-04  1.5137343372380267e-05  3.6528215823036412e-03  3.1627478825223231e-03  2.9596664587122020e-03  3.3230381729119370e-06  6.0244555309970204e-07  1.5954308988628165e-05  1.9902217966419398e-03  4.6096434942235826e-05  1.6725574011455933e-12  3.5452128450699665e-16  9.4815136822722719e-16  4.8957765949563010e-07  2.6267584158093585e-05  6.1286966333821010e-11  3.9620923599180645e-17  2.9088700263374492e-10  2.2697757878246423e-06  9.5479941608782575e-05  9.9308079666380222e-08  1.0899232068908508e-03  2.7147051568627413e-05  5.7369143045469032e-04  1.8668186332635800e-16  1.8663409297242755e-15  6.6373711959790819e-15  7.5057706620147773e-14  7.3100637010586593e-14  3.1578181160735191e-16  1.8637338426631935e-06  4.2140856375206230e-10  1.7561010809874118e-03  4.9001580210443087e-05  2.0256488269533458e-03  5.6075880833612331e-11  5.8401925390131643e-07  4.6838860465296948e-15  8.5809753106604502e-09  3.6528362258394266e-09  1.4893640085896385e-05  2.7715321198404282e-12  4.1681128364837094e-12  1.1569559212318010e-13  2.5891882435321485e-03  5.3645176653479646e-06  2.2612443366070165e-03  4.6098056221746388e-04  2.6373081414358425e-04  8.3669817973016501e-06  7.5108254378172790e-04  6.0303888001725953e-05  2.9272488413084603e-06  4.6010956639611453e-08  2.1547557982432362e-07  2.4346770031876313e-05  2.6948214126101334e-05  2.6629681137013127e-05  1.6692989795280636e-12  1.0358750555432231e-16  2.6027887709475653e-03  1.7115644208168053e-17  3.1825052183530106e-03  1.3788958472451552e-09  1.7083446928974741e-03  3.9330184095773708e-04  2.6271576096832195e-03  3.2984150508968594e-04  1.0863454207701191e-08  9.5839183427601259e-04  1.6424964800595588e-04  3.2995294500944151e-09  1.7116667246662410e-06  1.1405376448929180e-05  6.0782341336291716e-17  1.2277037034195166e-05  1.0396251701853040e-09  7.1247130531671030e-09  4.6835993739650282e-07  4.3026042718971824e-05  2.8873940358422862e-12  2.9755880636120495e-07  2.2106712150504486e-05  1.3931918905985677e-05  2.7921510173609408e-04  3.7285847035073723e-14  9.2564916723129358e-15  1.1106286971068804e-11  2.4266310055934143e-13  1.0449854572892991e-05  7.5819344654860691e-14  6.8540436745327533e-11  2.8844012751569960e-04  5.5099572140374176e-05  8.0174801561495531e-05  2.8057365240628592e-03  4.6095520255757581e-10  6.0024488623107009e-06  3.8033729041612634e-03  5.5108780438730873e-04  7.6102255415032939e-12  5.0505451115300196e-03  3.6236377865314627e-03  5.7300412815945116e-18  3.3579258460959328e-03  2.2185789454387958e-05  7.4819391639111671e-06  5.0321339404606411e-05  3.1679623561803557e-05  2.0393463081098622e-08  6.3217498123442752e-15  2.1236301365804305e-05  1.9245754030665944e-03  9.7489320176560897e-05  2.2142782728420692e-17  3.3588279995619176e-18  2.9219514570696409e-05  4.5226311359213510e-13  1.4763255733472264e-04  3.6746195677233792e-03  1.5657125040924449e-08  1.1973320383218597e-03  1.0109854680256273e-16  1.2263076090874124e-07  1.1007994617984202e-03  1.3901298031174534e-08  7.5608910154895635e-08  2.2615611315874006e-06  9.5130915946551011e-11  2.9262881761695074e-05  1.5957249144876440e-15  2.8275514610400916e-06  4.7320325002652642e-16  3.8307309415827753e-04  5.7249400485051322e-04  2.0124860265756667e-05  1.3772123658692081e-04  3.0638488163969306e-03  5.9380430298414966e-06  3.7062860651572082e-03  7.7794259314601432e-07  3.0902043384105930e-03  5.6697258834700251e-05  1.1185549252031977e-15  3.5084654492126902e-03  1.8591365112845552e-03  4.8800586114755648e-05  4.2520524512798702e-13  1.7712890661593727e-08  9.9741181928104685e-13  5.0703180741851379e-08  3.4417232719398829e-07  2.7168315543745917e-03  1.2829961821296089e-03  8.0512783869792360e-04  2.0742643252044711e-03  1.2964573853716083e-03  6.4416878891881326e-11  1.5690296578637702e-11  3.7594361791773013e-17  5.8309409793291746e-04  2.4856533464550550e-04  2.5022877085141440e-04  2.0308899823763107e-04  8.5112413134672612e-05  2.2021690887970179e-07  2.2557138678063355e-04  2.9375722982149500e-16  1.0362409290608408e-09  1.4701923690068125e-03  2.0265681473696346e-03  4.1434670793346956e-12  5.9612117253831981e-05  1.9872948330671862e-14  3.3565412181742748e-17  2.5901727411160312e-17  2.9999228188745809e-16  4.7025145896861345e-06  4.1388151667807075e-05  1.0415889819433133e-10  3.9991085315790382e-12  9.7165678857263504e-15  4.4715734821403820e-06  3.7500764915639353e-07  9.9539740357834545e-06  9.6109430491433127e-10  7.0720972844064400e-10  6.8974019751143499e-10  4.3333830976991693e-04  4.1315727793390659e-12  1.0251357272040337e-11  7.9910273111589861e-05  1.2216703604176065e-04  5.3945203942649115e-18  1.0551318705979822e-17  2.4140442099129651e-04  7.5336103841064164e-05  1.3350132745367979e-03  3.8318594606809119e-04  4.1023678562965353e-04  7.7313461334647514e-10  7.6812863658657854e-13  3.3691502915196664e-13  1.9549286111179310e-10  1.6777750131411223e-14  1.8960279674542712e-03  3.8877281968715894e-05  2.2275199723130134e-13  4.9423296649928642e-06  3.1855142304284186e-11  9.0239707011733410e-11  6.2594922664869235e-05  6.6343122245137622e-05  2.4772645879980034e-03  1.6781396213581051e-15  2.0621756451734847e-04  5.8099027875546095e-09  2.9077622830110072e-06  5.4416896407259088e-16  4.1844589842131012e-09  6.7503371637658921e-06  7.0087075432454738e-05  9.1170258188290343e-04  2.5642031745267142e-09  1.8908759595098489e-03  3.2047863368432103e-03  3.3211493691518083e-03  1.1240809025794222e-03  9.0022310986223159e-06  1.0638326582645555e-03  4.3929012891079743e-05  2.3357588815734269e-05  4.7332134207560918e-05  5.6269436984147007e-17  1.1983185335650777e-06  2.2122319045172456e-15  1.2578434839994872e-03  2.6315381401772280e-14  1.2539689005595287e-13  1.0543692861867913e-14  4.2904888527336030e-14  6.1822516819313508e-09  2.6324107277716522e-11  2.4604739061517823e-11  1.8664824993077034e-10  3.1920565577477905e-06  8.7853148537875769e-04  3.1768124860714914e-03  1.8609697521727975e-04  8.2362201719700937e-16  1.0207771543433705e-07  5.0105559781998908e-04  2.9507622850541177e-04  1.5096391109191238e-03  2.2119083824474949e-05  4.1431632599832962e-03  3.4204023936557400e-12  1.0953489191791055e-04  2.9736924496178975e-04  2.2393664620486736e-03  2.3278132384329134e-08  3.3954927338749654e-05  2.8098961907399271e-05  1.4807773526721765e-04  1.3320783788090311e-15  9.4385058565571184e-08  3.7379488492224181e-03  3.2243168742035339e-03  1.8189317974559521e-08  3.6138168209204021e-03  7.7796860185583945e-04  1.0856251461931297e-03  1.9408334774009381e-04  8.6582778990598372e-04  2.3555448766528821e-04  3.1975440677549905e-03  2.5060463611649925e-03  6.2842441700837221e-04  7.6601975082019489e-05  7.7120305256671737e-10  3.0450962109474480e-11  2.7039648583088630e-06  2.9072847286896689e-11  1.0956747812773911e-06  1.7508379530474197e-07  3.9049228147035795e-08  2.2659833348996412e-05  1.3353562888117294e-10  5.6263341236165934e-07  2.3798730158906372e-14  2.2763748385559557e-05  3.6795508553597034e-03  4.1373072615639200e-06  2.2824348943485203e-06  1.1748099204899944e-05  4.3066268396500752e-03  1.4062686521025346e-09  2.2627601512809282e-10  2.4016129091406495e-03  3.6934245576053744e-05  2.1435439928564029e-03  8.4285488544922636e-06  2.5347753064673935e-03  2.0718918409085913e-10  1.7295389984847345e-09  2.5756394753142164e-09  1.7799586569101959e-04  8.0482282630472877e-14  1.9142033964958441e-03  1.8992906548886436e-15  6.1445424578401042e-15  3.6990253181099362e-07  8.1878001851626780e-04  3.5081190071618298e-16  3.0498147174076670e-16  6.1585127312407270e-17  1.0103745424080586e-11  1.4766367630063319e-09  1.5108572570641775e-04  8.5561174953383625e-05  1.9378389733274785e-04  2.5923750795675091e-05  3.8819547060544979e-08  4.6098065398284076e-05  1.8681553056190958e-05  2.6481709307301929e-05  1.9907300590449014e-05  3.9202221517391082e-05  2.3712699064787045e-17  1.2455749464016002e-16  9.3777650652812048e-06  5.6184777078203207e-14  6.1676257193458569e-17  2.1841586246510048e-03  1.1645409866694933e-05  5.0225897825850513e-04  7.0986741391726645e-13  5.3436904746103661e-12  2.6123245693825785e-03  1.7207727061133500e-05  3.6026050254215161e-03  1.0443168796311199e-04  1.0221209243182793e-03  4.6153480803868706e-04  5.3205993038148212e-04  9.8602464766878472e-06  8.3587773899442625e-06  5.8471269995594328e-07  1.0623923621790327e-07  1.4265976126257983e-07  3.4906039432363788e-05  9.4942017341925707e-08  1.8782258806466966e-16  2.0954213957256507e-06  8.0110584942635920e-04  2.9950245860215201e-03  1.3152978023680051e-03  4.9634643032272564e-04  1.8216585711202947e-05  1.0683352559498088e-05  3.3719580134082315e-03  3.2453565889932899e-03  3.0313226134164660e-03  2.6844237895900873e-03  1.0918034083871108e-12  3.9177393423129441e-07  3.8618901939100047e-04  6.5066605968706437e-05  2.0392551360182970e-04  1.0680367465698855e-04  1.5957039972578776e-07  1.3298279105767477e-11  1.5828518303238683e-14  4.9796171114099855e-15  4.8565636859366073e-14  5.0163347695951033e-07  1.8759213352643394e-05  1.2518146117923701e-06  2.1107225755787999e-05  2.1018759606645967e-08  2.7479157555270413e-06  1.1302979185765277e-18  1.1518155639723603e-17  1.0012473667266661e-06  5.0046616059864521e-09  4.2760439198783450e-09  1.9338799492109147e-12  2.6859905876467763e-05  7.1072993634728808e-13  1.2496355684898494e-03  2.1254737788915042e-08  2.4225109208851349e-05  2.6687630534291142e-18  1.2516810373848688e-05  3.6356594275464781e-03  1.4131178056784346e-05  3.4006610694818119e-03  3.5474539772883725e-06  3.3076331005395514e-03  5.6709707916424237e-06  1.0468643257957376e-03  1.7988264553712505e-05  2.5507062135709177e-05  7.6140508410579222e-06  2.2482348497449463e-03  2.8682156962698533e-03  1.4808468379720328e-05  1.5047472532968051e-05  1.7068579018383594e-03  6.4900718478785019e-06  3.0676629189637291e-07  3.0432321613214450e-11  1.1280376902860006e-15  8.5152800594110521e-08  1.2399042475179181e-16  2.6930681252750684e-15  1.5849703854885145e-11  5.0509425036205019e-15  1.0887436295906591e-04  4.4533122122396934e-08  1.2482933709038713e-05  9.9188805824113505e-05  1.0554293211077945e-06  1.6803423638122280e-06  1.8359497473717698e-05  7.5109952300987619e-09  2.2278265477643032e-08  1.6485079283978857e-14  2.1939589693823272e-03  6.0642451549260304e-08  3.0661845421535099e-08  1.2628539515242490e-10  3.2375872967324360e-13  9.9706195840189570e-11  2.3957245184002188e-05  1.9938350407892251e-03  1.3484669835239505e-12  3.1454560353741158e-10  1.3693463699221204e-06  1.1893415750669079e-13  5.6039137717918787e-09  1.4542996818442940e-03  1.1994895542601941e-04  1.4827672428083770e-04  7.4826629423750335e-05  3.3084058860991142e-03  1.1025739406879411e-10  2.1901499728116188e-03  1.3905595894537866e-16  3.2551482217523115e-16  3.1571634641740900e-05  1.7930082591305246e-03  4.0746754834380282e-07  1.2374010781346174e-03  4.3578754054524273e-06  1.5374371723394334e-13  1.5991637256737318e-13  1.7434727068022188e-03  4.8199638438306581e-16  1.0362444055378714e-05  2.8647454013041255e-03  2.4794455466721761e-03  7.2887555704422686e-04  3.3710415088377107e-15  9.7706878479373272e-13  1.0095659298119495e-04  1.5358393318122448e-12  1.1392827505974158e-10  2.0053842998536162e-12  1.4552077465200837e-14  5.2602502835067178e-17  1.1166694964658680e-04  2.5533389525792297e-04  2.1382419061003528e-09  2.3144638727744607e-04  4.5292274218138094e-04  9.0260165217823650e-10  1.4580378743543002e-10  4.4039056782774219e-05  3.7324363487966361e-14  1.6387219784408694e-03  8.8346867548495122e-10  1.5931136015695884e-03  1.9895782720996937e-04  5.2161072141275293e-06  2.2210900431773300e-04  4.0612128431067366e-10  1.7352333818292235e-05  8.3360055608523138e-09  1.4855993601000763e-05  2.2534450236861977e-07  1.1778900149029784e-04  2.8495957965736401e-05  1.8683723261611878e-03  1.0377021261434091e-13  2.5562289391539992e-03  4.8674674552866609e-14  5.5084805886459805e-06  2.3960826244298438e-04  2.4341559306499278e-10  5.1790381609825730e-12  1.6966693033257816e-05  1.2399197698879390e-05  5.8001359957869853e-04  3.3305188698134628e-11  2.0535653086937427e-05  4.4207434469942432e-06  9.8702065300417669e-06  2.1863416769043878e-05  2.9017643982454350e-10  8.2249306290623823e-09  8.2704864600388099e-12  2.2794004972446816e-12  6.5907177424794572e-16  1.3533682963421138e-09  3.7008805861979320e-15  3.6855768521458479e-06  4.0569914417638205e-06  4.9924243299368564e-09  1.2373924326156088e-13  1.9220268009937079e-06  3.0711687284675103e-03  3.5351236746559876e-03  3.7623671724706827e-09  6.2750888563896247e-06  3.6121889375067447e-03  3.2054823787173552e-03  1.4061462022627524e-14  2.4397209060008809e-03  2.0687232593054784e-07  3.8045950937268510e-03  8.2097684100793459e-07  2.5535896195541505e-13  3.1794056334227361e-04  7.1701633868083601e-05  2.5868306793281272e-03  1.2338692658595415e-05  1.2150717799207700e-16  2.0829599272254155e-03  3.2238943721516313e-13  8.8832174087125974e-06  4.4455505052880249e-10  6.1658894858042711e-13  2.2582565725184338e-17  7.7619151469605064e-05  4.9658982107903267e-05  4.6999250610833533e-05  3.6050845218067277e-05  5.0541743557150636e-04  5.4014533016330067e-10  9.0623844201323826e-04  1.2235523680294643e-17  2.2105429912880391e-04  1.7280634227415296e-15  2.6948617409469707e-05  3.8102282204911199e-03  5.8116214110769749e-03  4.0047382552563001e-13  8.6806190276314196e-04  2.7725522479339837e-07  7.6280195917266548e-08  4.6512586918944120e-08  2.7926620240447147e-08  5.4071668612234027e-09  4.8140600472215084e-13  3.5022314616450315e-05  6.6580078000902208e-05  2.1377545649785954e-04  1.0893629908602747e-03  8.4783605819547820e-04  4.1386440436367096e-07  1.6644389432488882e-07  1.6248875466978005e-03  4.4107122199934557e-06  6.8532435214529780e-13  6.0760228207472973e-04  2.5554807370738461e-03  3.0108349912783727e-03  2.1714300818751371e-03  1.3284131986875156e-17  5.2510268495356352e-03  5.4923503762053417e-06  3.3284838544731857e-06  8.9894874784586629e-04  7.7588142111315503e-07  1.2667527148719179e-03  9.6921764180648268e-12  1.2306659286888840e-03  4.8475814459740121e-05  3.9113727555306525e-05  8.4016253578046794e-04  1.3464622786056915e-15  6.0170678623713088e-06  1.2470310317280902e-03  3.7547866189011215e-05  2.2532310869778696e-08  5.4190383238729149e-10  5.0599944731130505e-05  3.7184899191891699e-04  2.0476991386750133e-04  3.9959799483792443e-05  2.3313046714737275e-03  1.9319685344282336e-12  1.0159952758753840e-16  1.9360179923030070e-16  3.6865167129826296e-17  2.8249766083001211e-03  8.2672169597187589e-13  1.3606841971657629e-14  6.6514823605991262e-05  1.0530567407321542e-07  2.0884550101232424e-12  7.3067180844275098e-13  9.7008143401412407e-10  1.0318248882400056e-03  7.6209238163190080e-06  6.4678316459148164e-06  2.8150318484925437e-05  7.5580202292874522e-07  6.6711808185956940e-06  1.2710039946464032e-04  8.7401584114833513e-05  1.6803414328549616e-03  3.2735558380509568e-03  3.4527907555683924e-03  4.4780076061703579e-07  7.4482806971153236e-06  1.1028724113383333e-05  4.1055270199687751e-06  2.3519887039673837e-03  8.0367308199914298e-06  5.3196995350803705e-06  3.6828316595516426e-03  4.9184255348567649e-04  1.9120865690636526e-17  3.6827281762265346e-05  7.3134716451926955e-05  2.4886909771265588e-09  6.5768135839035007e-10  2.5683558020556676e-03  8.6059020243326394e-14  2.2114687035301804e-04  2.1857343313559821e-03  1.1135250906339899e-04  2.2631023308637335e-03  1.9057492669951141e-05  1.1921474101979246e-05  6.5082067325681855e-14  7.6930020509166215e-16  3.1851585364083669e-03  1.1607168844825475e-08  4.8687498490075182e-09  3.6176787560253733e-09  6.1704506693192765e-07  2.2782236348478690e-06  8.5871755150377377e-10  4.0483319748452259e-12  2.6001151667447804e-03  4.1625939789915340e-12  2.7131521720250707e-14  6.1023039762738233e-15  3.6016324707862269e-03  5.6641147794980176e-04  2.4851907078416133e-11  8.2608158053723200e-04  1.2688776376451053e-11  4.5640358416541048e-06  1.1709240903187242e-07  3.0309137720927788e-04  1.7443954977439323e-05  4.7621284693644297e-13  9.2163090560965067e-06  3.8886407445831457e-06  1.7165580318487009e-03  2.9390716055386918e-03  1.6704892619533629e-10  2.911487880408776