<?xml version="1.0"?>
<VTKFile type="UnstructuredGrid"  version="0.1"  >
<UnstructuredGrid>
<Piece  NumberOfPoints="2446" NumberOfCells="4585">
<Points>
<DataArray  type="Float64"  NumberOfComponents="3"  format="ascii">0 0.41 0  0 0 0  2.2 0 0  2.2 0.41 0  0.2404508497187474 0.2293892626146237 0  0.25 0.2 0  0.2404508497187474 0.1706107373853764 0  0.2154508497187474 0.1524471741852423 0  0.1845491502812526 0.1524471741852423 0  0.1595491502812526 0.1706107373853764 0  0.15 0.2 0  0.1595491502812526 0.2293892626146237 0  0.1845491502812527 0.2475528258147577 0  0.2154508497187474 0.2475528258147577 0  1.1 0 0  1.1 0.41 0  0 0.205 0  0.55 0 0  0.55 0.41 0  0.275 0 0  0.275 0.41 0  1.65 0.41 0  1.65 0 0  0.8250000000000001 0.41 0  0.8250000000000001 0 0  1.375 0 0  1.375 0.41 0  1.925 0 0  1.925 0.41 0  1.5125 0.205 0  1.7875 0.205 0  0.6875 0.205 0  0.9625000000000001 0.205 0  1.2375 0.205 0  2.2 0.205 0  0.4687002074688797 0.2068568464730291 0  1.99375 0.2152743902439024 0  2.0625 0 0  2.0625 0.41 0  2.2 0.3075 0  0.4125 0 0  0.4125 0.41 0  1.7875 0.41 0  1.375 0.1486128048780488 0  1.5125 0 0  1.7875 0 0  1.5125 0.41 0  0.8250000000000001 0.2613871951219511 0  0.9625000000000001 0.41 0  0.9625000000000001 0 0  0.6875 0.41 0  0.6875 0 0  0.1375 0 0  0.1375 0.41 0  1.2375 0 0  1.1 0.1486128048780487 0  1.2375 0.41 0  1.65 0.1486128048780487 0  1.126715909090909 0.2793064024390244 0  1.676715909090909 0.2793064024390244 0  0.8517159090909092 0.1306935975609756 0  1.348284090909091 0.2793064024390244 0  0.34375 0.3032389320646208 0  1.894702181800738 0.1282910975492754 0  2.092797818199262 0.1282910975492754 0  1.85625 0.3075 0  0.61875 0.3075 0  0.61875 0.1025 0  0.3648540804333487 0.1240075933101478 0  0 0.3075 0  0 0.1025 0  2.099172119769978 0.25625 0  0.48125 0.09238439620688085 0  0.5781001037344399 0.2059284232365146 0  0.48125 0.3196743479159776 0  0.7265881057911006 0.3055240343720796 0  1.99375 0.08395950269330846 0  1.459960956013612 0.3075 0  1.569025960719943 0.2986889805672169 0  0.75625 0.08213100772579164 0  1.03125 0.3278689922742084 0  0.923871252904788 0.3078247185783941 0  1.959375 0.3126371951219512 0  1.749222215368287 0.1025 0  1.275777784631713 0.1025 0  2.2 0.1025 0  1.225938124459196 0.3075 0  1.550777784631713 0.1025 0  1.000777784631713 0.1025 0  1.44375 0.07430640243902442 0  1.16875 0.07430640243902437 0  1.899250267340833 0.2229966846119207 0  0.1020898364287272 0.3140258291809757 0  1.766482954545455 0.2934032012195123 0  0.3405058858996321 0.2119987970531874 0  0.7710785630958338 0.1710968191298857 0  1.046078563095834 0.2389031808701144 0  0.2 0.3400647632937836 0  1.421109702350723 0.2261157654379721 0  0.2800464974185557 0.08982544815605742 0  0.098916018031319 0.09171660955420841 0  2.13125 0 0  2.118919042110979 0.3422084711244843 0  1.30625 0.41 0  0.89375 0 0  1.597888256393107 0.2173787389261347 0  0.20625 0 0  1.829299675393195 0.07400700849299596 0  1.71875 0.41 0  1.16875 0.41 0  2.038220665644273 0.332420740103091 0  0.34375 0 0  0.417496017710808 0.2696595573092803 0  0.2 0.07687845740457822 0  0.9295982307099278 0.1343158415898188 0  0.07390688010811153 0.1697064032433452 0  0.5238366813727013 0.2578302467013575 0  0.05452951551825875 0.25625 0  0.5229630068078351 0.1548816096928243 0  1.452769549894695 0.1548122580621249 0  1.369219062229598 0.07430640243902442 0  1.30625 0 0  0.8504409521244898 0.3356935975609756 0  0.8821881244591965 0.205 0  1.720943423819132 0.1714577452753128 0  1.157188124459196 0.205 0  1.094219062229598 0.07430640243902437 0  1.03125 0 0  1.304056576180868 0.1714577452753128 0  1.67579304192913 0.07430640243902437 0  0.2751941921308361 0.3346083473122598 0  1.209670467133757 0.1362100266964769 0  1.025335513626278 0.1700681449722324 0  0.7562500000000001 0.41 0  1.58125 0 0  0.7567170593862014 0.2409196493502535 0  0.6926714215682891 0.1272249611432207 0  0.4139715849905988 0.3397932387114203 0  0.9840787304190477 0.2717749043358119 0  0.06875000000000001 0.41 0  0 0.35875 0  0.9281250000000001 0.06276726142697993 0  0.5507396469029935 0.3219409231578227 0  0.5504468037989405 0.09136885600634273 0  1.58125 0.41 0  1.631724228912893 0.3381867502687533 0  1.825608881788174 0.14499488549201 0  1.85625 0 0  1.44375 0 0  1.44375 0.41 0  1.85625 0.41 0  2.13125 0.41 0  0.7562500000000001 0 0  0.89375 0.41 0  0.4812500000000001 0 0  0.34375 0.41 0  0.4812500000000001 0.41 0  0.20625 0.41 0  0.06875000000000001 0 0  1.16875 0 0  0.61875 0 0  0.61875 0.41 0  1.03125 0.41 0  1.71875 0 0  1.99375 0 0  1.99375 0.41 0  1.340625 0.3489494290853124 0  1.134375 0.3489494290853123 0  1.700180620188976 0.3438659752031281 0  2.135782184673599 0.07126652247502523 0  1.668441847249787 0.2129203728327609 0  1.295782514339747 0.2378437748815763 0  0.8233075729931248 0.06842334294821524 0  1.409375 0.3520314716057996 0  0.403505597322782 0.182067236678212 0  0.378125 0.05794951541303489 0  0.3043468223249023 0.1518321115979534 0  2.129248544730567 0.1906135162504124 0  2.060771381434487 0.1989445750470348 0  2.013252586573865 0.1496169464686054 0  1.942766402200229 0.1734448904596831 0  1.895522487186454 0.06076163953489683 0  2.069553871656643 0.06605731020975725 0  1.274680914880868 0.3520219391081363 0  1.614713220494657 0.09473434380863296 0  0.7899021319497519 0.3149123934144827 0  0.69518737419149 0.0634051089053758 0  0.2971740475496061 0.2592172353407536 0  1.72990325744076 0.2380068107952482 0  1.356580098625191 0.2120393231351682 0  2.034370752044885 0.2668681600792073 0  1.51768709249349 0.3426260931494756 0  1.561883724969884 0.1650446847858835 0  1.197344062229598 0.2523725417393646 0  1.804085235518364 0.3468178408964637 0  1.817887819205233 0.2589243285818559 0  1.905897727272727 0.3485060975609756 0  0.6719798073392919 0.2688965171178177 0  0 0.05125 0  0.653125 0.35875 0  0.6396896119294488 0.1627615407790282 0  0.4274150154087412 0.1242548552168279 0  1.192836486056382 0.3562350748565544 0  0.8279124365364005 0.183856489168822 0  1.097485222388854 0.2083571153401724 0  1.28257088594801 0.2944411014911587 0  1.474860187679412 0.2504218616229368 0  1.406767003493824 0.2829282258560709 0  0.446875 0.04619219810344041 0  0.515625 0.04585361801037557 0  0.592043440706648 0.05125 0  1.845656689180403 0.1998310418452388 0  2.144958525570388 0.2909790873294231 0  0.6171090763650112 0.2492366900333857 0  2.2 0.15375 0  0.5145586920831158 0.3648371739579888 0  1.57794966442982 0.3540357145964566 0  0.721875 0.3633107922168974 0  0.0496154796471391 0.333125 0  0.5843750000000001 0.3662560860076676 0  0.5810878747760798 0.1474002776121195 0  1.508991196088596 0.1421783375065625 0  0.8840670607017558 0.2640994375393898 0  0.09776612425612034 0.2204896805326566 0  1.50436820029908 0.06143401634903343 0  1.223857000523521 0.0823554862453532 0  1.153316824384777 0.1289850171317837 0  2.148922302309752 0.1258841779285271 0  0.309375 0.04312325590431198 0  1.621993280276081 0.2841214267927899 0  1.550118654119087 0.2461998729100966 0  1.327182649291491 0.1216967252533594 0  1.051977450479407 0.1221382572915816 0  1.753125 0.04556020050186112 0  1.271875 0.04556020050186116 0  0.9816084133102366 0.05126138213476004 0  1.039051841454368 0.0572224914831029 0  0.9719230514536006 0.3480477870845102 0  1.94956388244759 0.1180512551534177 0  1.949997712993411 0.04965831614304109 0  1.771961817615021 0.1530278789497521 0  1.909246823951428 0.2812757146784527 0  0.2459536687882397 0.04668633953831142 0  1.948575539857022 0.2445328248721197 0  1.697271520964565 0.1233917627620729 0  0.7964897648514618 0.1211426571931604 0  1.065625 0.3689344961371042 0  1.085849084308977 0.3170853572226867 0  0.4702981435440001 0.260434880697798 0  1.577403511714593 0.05463601888079143 0  0.05622663515370135 0.05493816910862376 0  0.3267207591099919 0.3566194660323104 0  0.9003051618565143 0.3564049499960621 0  1.751571320346033 0.3651102912045228 0  0.1583785085108421 0.2994699345738728 0  0.1455283439499995 0.3542795598723423 0  2.2 0.35875 0  0.2347662494194072 0.298325008655211 0  0.1527284455616188 0.1065771775690181 0  0.1382139529076665 0.05427454456341477 0  0.8749341636311069 0.05110114999892954 0  0.643661668713109 0.05693499781019222 0  1.466879772203159 0.3611261772912453 0  1.990280163552011 0.3564754268533217 0  1.17471064520912 0.2990917256188288 0  0.5202693090594349 0.206382495511728 0  0 0.25625 0  2.2 0.25625 0  2.2 0.05125 0  0 0.15375 0  1.853978576207987 0.35875 0  0.9787513713939683 0.1487523696999336 0  0.240625 0.3722153812029779 0  1.515638456102889 0.2882700110184686 0  0.09048297387599738 0.3637717362208066 0  2.150453692751374 0.2387066338105111 0  1.323782677156475 0.04897634338873398 0  0.8074131292871642 0.3624701995505916 0  1.409375 0.03715320121951221 0  1.406484531114799 0.1087852750766809 0  1.134375 0.03715320121951218 0  1.627401732573545 0.04552157221025036 0  0.1170173172005315 0.1427610859166811 0  2.045405893604797 0.1105340662939892 0  1.255408269734577 0.1577307500159216 0  2.028125 0.03707597992059326 0  0.4743610090857199 0.1421513964721819 0  0.9354010469015898 0.250631300585664 0  0.04420832937638274 0.128125 0  0.8922386349349938 0.0992956419364831 0  0.1197849154434487 0.2663398672460083 0  1.248258025468107 0.2565907092181813 0  0.3746885856929528 0.370723531618974 0  1.203125 0.0366132337404304 0  0.5724622277005015 0.2751253816079333 0  0.3365425205162783 0.08395777655057959 0  2.072662025974815 0.2975086504196739 0  0.4581080832182547 0.3648371739579888 0  0.3874522734668214 0.2295447548840689 0  0.7827853612484443 0.04106550386289586 0  1.887722846421017 0.1760882698830035 0  1.472640588990488 0.1118278026240017 0  1.865937103925594 0.2604137786483804 0  1.463913572748262 0.2030442564990043 0  1.376426316059077 0.3186741374914345 0  0.6641993820150034 0.3141688596240831 0  0.2943117490824315 0.2130987422685822 0  0.3478153998082709 0.1666571081082676 0  0.3427990510599805 0.2575950027870776 0  0.7997118993855807 0.2216171933356366 0  
[...]
<PointData  Scalars="f_9-1"> 
<DataArray  type="Float64"  Name="f_9-1"  format="ascii">2.6646965466471808e-04  1.2217409999582748e-05  7.0827841076632329e-11  1.1616360803067191e-10  1.7428718069753232e-03  1.2302872559367165e-03  6.4946080111556389e-04  1.8698980275473856e-04  8.8401377423991606e-05  1.1855403541692447e-04  1.9386643264592178e-04  4.9055443402055304e-04  1.1733810524159061e-03  1.7511077687727321e-03  1.5751669957404728e-04  1.0057630208594450e-03  9.6045373205531819e-05  4.6668526784364252e-05  3.5468670998290053e-03  1.9030357962249265e-05  3.6045621963443331e-03  3.6336640298258879e-06  1.4655097433633092e-06  2.2396334255262583e-03  1.2903187694678357e-04  3.5496856031821444e-05  1.2319908937457761e-04  1.6541033512792535e-08  2.9515859589358566e-08  1.2357866351834259e-04  3.4571643466106859e-06  9.3827465747981864e-04  2.1160403487576859e-03  8.7237957478968401e-04  1.7345721230861121e-09  2.1390309933067542e-03  1.0010796852378399e-07  1.1107641985234157e-09  1.7184060283376132e-09  1.1221631246379082e-09  3.1060629767016196e-05  3.7841287751744592e-03  3.5620256699809848e-07  2.8853295839928450e-04  8.9309106809405133e-06  1.7059794336752157e-07  2.4731567543925397e-05  2.7153379606692238e-03  1.6637913435128932e-03  1.6165541518201084e-04  2.9274712605478989e-03  7.0625837444210327e-05  1.3998468972971780e-05  1.8858449234261650e-03  9.7744327873706095e-05  7.9989155717445832e-04  4.3146833109716630e-04  1.8059673882303520e-05  1.6378774900612453e-03  1.6837632555709071e-05  7.9232128447886149e-04  5.7021530344827378e-04  3.2260092076912229e-03  3.7436319588501652e-07  9.1957911034605958e-09  8.5607942837278880e-07  3.3207566209198847e-03  1.6042452935637337e-04  3.6986231991183004e-04  1.7403224614021090e-04  3.0577403163270789e-05  1.2185356016862680e-08  2.1490245935905191e-04  1.6986935139235413e-03  3.5582898367616110e-03  3.0581769355060478e-03  3.5145759949938062e-08  1.9174654372695741e-04  6.1418211247138868e-05  1.5826975711947847e-04  2.0453697983952865e-03  2.6311280867484183e-03  1.2826713203938467e-07  2.8612527137642951e-06  3.1673803948848453e-04  8.5221816987573534e-10  1.0961742468156190e-03  3.6668976796725829e-05  5.7299005854682971e-04  6.8344288035036260e-05  3.0933542473588518e-04  5.6479017784057138e-07  4.3003253002517096e-03  4.1652188085606011e-06  1.5526513363844352e-03  7.6758667799862123e-04  1.9162100595122558e-03  4.5971871470492790e-03  3.1377691264600395e-04  6.7679117907126866e-05  2.9638122382824740e-05  2.2904485307465361e-10  3.1821313592872614e-09  2.4237951386714001e-04  1.4919506138210041e-04  4.9051751591821252e-05  1.6386086270701752e-05  5.1883591996135166e-07  1.2541199273351177e-06  6.9302567313147666e-04  2.0251762760801114e-08  2.3272790340527514e-05  2.7124129690239813e-03  3.5319052423397598e-05  1.0546113756711615e-03  6.6923073016361264e-05  3.0286695785046035e-03  1.6609716110376624e-04  9.2601494776688468e-04  1.6338989724463878e-04  1.2285773216341687e-04  5.9899184306375172e-05  2.6351296952695962e-03  2.1690615715736152e-03  8.0166537847739288e-06  1.0721519884329292e-03  3.2900125038783833e-04  1.6748206905676122e-04  5.3321259946322779e-04  5.0773646503970952e-06  4.0668717513521703e-03  5.7035607916141413e-04  1.3363997540694560e-03  2.5434066498202790e-03  3.9120045224969145e-06  2.0503749759604038e-03  1.8830441293813066e-04  3.7024143973596597e-03  2.4814310401457583e-03  5.9176565760758759e-04  2.1441104093166004e-04  3.0189147960625113e-04  3.5374844313143957e-03  1.8455604255037146e-04  9.7898198868503002e-06  1.8026955238142699e-05  1.3807751869656332e-06  5.3832869112948605e-08  1.7735423627897812e-05  5.8986432458931107e-05  1.1368347165449006e-07  3.8730128128282402e-10  9.8345960141998034e-05  1.9508570478878647e-03  4.0229777432304904e-05  3.7735656113620296e-03  3.7075418686242866e-03  3.0444401196848673e-03  1.2660631429565827e-05  1.3563491500123882e-04  5.3417106622138080e-05  3.2839269050866648e-03  1.3348007337603137e-03  5.2551141228164776e-07  3.9779464297533065e-09  7.7828545659718188e-09  3.7289072405863517e-04  1.2941885472143296e-03  6.1832369095964657e-06  1.5715708232623268e-09  1.9697101552609883e-05  7.8524425684465453e-04  2.3394197914878133e-04  1.9372961166967966e-04  1.3892336809261986e-03  5.1628909022321799e-05  6.5129368909909631e-04  6.4230552647947201e-09  2.6355800646537572e-08  5.2407549485137863e-08  2.2486341837889369e-07  1.2802287344570926e-07  5.4120303680653546e-09  5.9244249663336409e-04  1.5709552705314077e-05  2.9470921051015326e-03  8.7081387747382598e-05  2.1542681569907229e-03  8.5997289160644180e-06  4.9278416158958461e-04  4.3091449103375666e-08  7.0529569424691334e-05  5.8876776705174376e-05  1.2305051022328439e-03  1.1395541048726879e-06  2.1519322481880767e-06  1.8653589382245981e-07  2.6124675194721387e-03  1.6617114884748694e-05  3.3002480435198930e-03  4.4540743384227844e-04  4.6723095246705158e-04  9.2641324563650566e-04  1.4506354075379693e-03  1.3282301369863959e-03  8.5052330264165626e-04  1.9847777398992124e-04  3.5482347170594225e-04  5.4255843286980367e-05  6.8565968299119832e-05  6.8650746785723106e-05  1.3276426900135683e-06  3.8582097473243466e-09  2.4635508737011298e-03  1.3975431904228961e-09  3.6744740878205721e-03  2.7779813431189251e-05  2.9571252741755929e-03  4.6850049867490275e-04  3.5106129343886417e-03  5.4775384837628491e-04  8.6608736897193949e-05  2.7680455552188737e-03  2.0462665887823663e-04  3.0338083004722070e-05  3.0157375157930635e-04  5.9148227435737270e-04  2.8294533448297624e-09  2.7922316572051428e-05  3.4493081713052221e-05  8.9275158482260425e-05  3.0130426544032100e-04  6.7430284179158262e-04  8.4896926706663550e-07  1.3759171617337153e-04  2.5030284130606013e-04  2.6855031600888675e-04  2.1143831180337621e-03  1.2874522384031060e-07  3.5104517968503379e-08  3.3694435042584320e-06  4.1751900636352244e-07  2.5219725186271941e-05  2.3118155486964045e-07  7.6762482386190550e-06  4.2590092538272726e-04  1.4472425257045834e-03  1.8159396621214121e-03  2.8747482875357984e-03  1.1827340905737908e-05  1.7862062547182250e-05  3.8846759524111276e-03  2.2840654984584196e-03  1.7375797797822569e-06  5.0924663942559104e-03  3.7021796819868792e-03  4.0906549048623489e-10  3.3842558619891533e-03  4.4449575126721516e-05  2.0707402219445569e-05  2.2460749400620068e-04  7.0778513239188825e-05  9.2292369198903156e-05  3.1311368315114580e-08  1.3975890750444271e-03  2.1569848641266715e-03  1.5120636472409134e-04  1.6516874211405845e-09  2.8369418505307740e-10  5.6089164973812400e-05  3.7590831940314541e-07  1.2211432324842552e-03  3.7572514176835428e-03  1.1926174798842177e-04  1.2785503749192023e-03  4.3194121301407943e-09  1.0720960599909713e-04  2.5523421019483135e-03  4.4686952442310464e-05  1.5218664326587035e-04  1.9603518129612894e-04  5.1045349058673752e-06  5.6323318424952790e-05  1.9499642877653841e-08  5.9373813191590844e-04  5.3712897794696612e-09  7.8994696753514101e-04  2.6227178331087579e-03  4.2159405108264087e-05  5.4540081002737561e-04  3.1060839226836087e-03  1.0344669823688436e-03  3.8170418874749505e-03  1.6467791814159404e-04  3.1595108848832629e-03  8.5704819746330174e-05  1.6366154941662358e-08  3.7463422649544110e-03  1.9786227892535828e-03  1.3289546448980380e-04  6.0241345261481106e-07  9.0015451807273775e-05  9.6995239252699798e-07  1.9791633791937751e-04  3.7991185356886606e-04  3.2503068711908492e-03  1.4441253875674101e-03  9.4928205649636192e-04  2.1974329560250452e-03  1.9319970243612675e-03  8.6702428419588289e-06  4.4233479835854113e-06  1.1221807686142569e-09  4.5467605331340029e-04  2.4064540858357601e-04  2.1563178507624839e-03  2.2283883806195879e-03  1.7262189087161170e-03  3.3132296045139777e-04  2.7584205229783728e-04  3.7654989045589947e-09  3.0502864895059048e-05  1.1899374123660023e-03  1.9671757495580873e-03  1.8731906898406301e-06  9.9648381756570182e-05  1.0292950863209219e-07  1.5217048361499198e-09  8.2023978548953802e-10  4.5854109998393827e-09  1.5424219345195229e-05  9.9184183052414472e-05  5.9969651331866572e-06  1.6794849118152730e-06  5.8829749384972333e-08  1.5153877186318025e-05  4.4494517917071123e-04  8.3365822826749337e-04  1.2789480114188222e-05  2.9319850067632752e-05  1.5887058753663693e-05  2.0905639648306461e-03  8.7114723947277542e-07  1.6216454163351858e-06  1.5051953636229171e-03  1.7195547425284605e-03  3.2220753250155255e-10  5.0664123697365753e-10  3.2820515174681962e-04  1.1386187264595749e-04  2.7038294382532302e-03  1.8470583374911383e-03  1.4170097361303133e-03  3.1945562785166681e-05  4.0613060775830628e-07  3.9110487392056557e-07  5.9805015601845874e-06  5.0583576211837165e-08  2.0678921151894044e-03  6.4777490821713750e-05  2.0023018019102168e-07  2.0319750350504201e-04  5.0354970538740377e-06  6.3137991149744373e-06  4.7100703427186644e-04  1.2232780547286423e-04  2.5607581465463191e-03  2.3209403347722816e-08  1.8219232741390544e-03  7.9338667959238016e-05  6.4478864637922421e-04  1.2119608658424771e-08  2.7749942901631988e-05  1.9330841507414975e-05  1.1902266385629375e-03  1.3546215012936497e-03  5.5469258860956820e-05  2.7601337785025971e-03  3.2503044871676008e-03  3.3804408099252746e-03  1.0843165832918921e-03  4.0855569279636423e-04  2.5025030248792325e-03  1.4001768560767769e-03  8.6391893571320872e-04  8.0988945173214670e-05  2.9671653304947829e-09  6.1206418326301961e-04  1.4473604646019175e-08  2.8600602542423878e-03  5.7980593019152680e-08  1.4720294441032339e-07  3.0264451758272861e-08  1.1424630573974964e-07  5.4188922281508004e-05  3.8248091236019020e-06  2.4171231998536996e-06  1.1583136432565158e-05  1.2356969792259442e-05  2.6675398327225056e-03  3.2156208879236168e-03  2.6968848527892872e-04  7.9851914519026220e-09  2.1260683544221368e-04  3.8495696084596566e-04  2.3435200475330894e-03  1.5730758854197509e-03  6.0346230153537838e-05  4.1760593644394267e-03  1.2246180308504000e-06  1.2994219004651384e-04  2.0019450394226043e-03  3.2125325086388634e-03  1.3408535586754790e-04  6.3466549502774587e-05  1.4202431957406562e-03  4.1363572076863562e-04  1.3839509625438000e-08  2.6099554147411292e-04  3.8230425093480113e-03  3.3057811189845200e-03  1.3469846755935884e-04  3.7168046276740687e-03  8.1140514513359380e-04  1.5523655862301833e-03  4.6460464801149638e-04  1.1517690261598462e-03  2.8626899667391761e-04  3.2756812462940558e-03  2.5536337738235235e-03  2.2609560706386388e-03  1.3772542343211180e-04  1.2543123124480294e-05  6.2482682734509912e-06  7.3694109086097854e-04  5.2584383266456524e-06  4.1795938686549447e-04  2.0685361997984077e-04  6.5394598465754375e-05  5.3946409149838604e-04  1.2141526534111190e-05  3.9333706915724428e-04  1.1033821957284000e-07  4.6529121371066085e-05  3.7470985158703143e-03  4.2365546601589389e-04  4.4939420306870534e-04  2.8256115115647451e-05  4.3662535509591564e-03  3.5403101159352467e-05  1.4175613302070344e-05  2.4831594053685751e-03  6.2614401882366355e-05  2.2175507735074660e-03  2.2345427014175379e-05  2.6493546582093746e-03  9.2627722597122945e-06  4.3770392237987684e-05  3.2017028963623819e-05  2.1627459046715414e-04  9.7444856476374986e-08  3.0135899500392336e-03  2.6205432362279615e-08  5.3375006084189637e-08  2.1175927271938037e-04  9.2738950763668912e-04  8.2391738034936331e-09  8.7157861593268243e-09  3.2415541713605061e-09  2.6131268115820306e-06  2.2418107925118144e-05  1.7399199442699968e-03  9.3964790626869024e-04  1.6866099789649867e-03  6.8687031809788935e-05  8.9962392855320164e-05  1.4644389429421653e-03  1.9749510125851886e-04  1.9029594155256155e-04  1.3995832828752602e-04  1.6455636994036496e-04  1.3252291070229966e-09  3.9867491707268059e-09  1.9648179193088787e-04  1.9634361993242347e-07  1.5444964240300688e-09  2.7395993535418170e-03  1.0262756277529155e-03  2.3514510556989590e-03  7.0857875599617469e-07  2.3936489773003015e-06  2.5511257589256016e-03  3.5479315002036523e-05  3.7851596491093368e-03  5.7455997540919036e-04  1.1472251174160129e-03  2.5593517518444084e-03  8.2621277058044309e-04  9.1606453108427678e-04  8.4589771507246052e-04  3.5608118182347648e-04  1.6965967714171630e-04  2.0304602258020907e-04  1.5263845443191633e-03  2.4078074093867671e-04  6.0425340326032687e-09  5.4623044836186758e-04  2.3841763710294862e-03  3.6076948875988927e-03  1.5047036729673030e-03  7.1613653114067954e-04  3.9958044605684990e-05  2.6376456031613553e-05  3.6053533423187050e-03  3.3620558500633501e-03  3.4987965102011211e-03  3.4350121435787499e-03  9.9961249151236242e-07  1.3779737062286966e-04  2.4286893968080078e-03  1.6126089429632854e-04  4.5926187216268526e-04  2.4002033004363464e-04  2.8426329387517521e-04  2.0335661153891196e-06  9.1834697323732433e-08  4.6613104053453161e-08  1.6721827703584538e-07  3.2208908777942247e-04  1.0805671137706317e-03  1.7682814473493757e-04  5.1196148173479307e-05  4.7204682758437261e-05  1.6559291546948141e-04  1.0953218982205817e-10  4.7518489227142067e-10  1.4864392120288877e-04  2.6181192631315971e-05  3.8784552470295586e-05  6.9443786171196601e-07  1.1720242979320378e-03  3.2744868590905188e-07  2.7392183212898665e-03  8.3725341595609575e-05  8.3881217938516685e-05  1.9100732529857981e-10  1.5832826373962471e-04  3.7929822177177599e-03  3.5385814007301757e-05  3.7564456991119239e-03  1.3180924237589665e-05  3.3952575768493548e-03  1.7429326016156873e-05  1.1317835511313911e-03  6.0192863280596289e-05  1.1388513160628168e-04  2.0728128876155186e-05  3.4237975220046063e-03  3.6385051417441730e-03  4.9072310619353901e-05  4.3580406647164942e-05  3.1065269724988684e-03  1.6743726008331929e-04  1.1485010183006019e-04  2.4027468899392842e-06  7.9642503578737046e-09  7.7693790322428896e-05  2.0773370609586311e-09  1.4527397895658014e-08  2.3990412672375005e-06  3.9776671184077700e-08  1.9720696346384563e-04  1.3678510373012627e-04  7.4916045589188383e-04  1.5137585760697993e-04  6.3028613391877774e-04  7.3624410165758767e-04  1.2532122590207953e-03  7.7825702131619265e-05  1.2532693825597352e-04  4.1520328086624024e-08  2.2248389723627362e-03  1.7313126167523807e-04  9.9543834912440256e-05  1.2812725718686199e-05  4.2497569147326788e-07  1.1494105971488632e-05  4.4719940797272263e-05  1.7216318159978868e-03  9.1731412896160632e-07  2.0496507961331521e-05  6.2815419702720425e-04  2.4465786343169765e-07  4.5525347959588669e-05  2.8663047919153849e-03  1.9883427607363152e-03  1.7333599209151597e-03  1.2099096286146220e-04  3.3403622226837945e-03  4.8638256937296383e-06  3.3376662521514785e-03  2.4602253853687124e-09  6.8244296762356222e-09  4.5060313253188444e-04  3.0777541540434800e-03  3.9429783781842428e-04  1.2852965954245749e-03  8.4173934120783075e-04  3.4884134872742084e-07  3.3442335243065594e-07  1.8261997174543109e-03  8.1415812291467047e-09  2.5771852172825541e-05  3.0404673808244547e-03  2.7513673123008551e-03  2.6057820689439487e-03  3.1375393196420420e-08  4.9625699968876451e-07  1.5550001333186605e-03  9.1142047279098860e-07  1.0668764265957998e-05  1.4723949116474906e-06  5.9660305820047325e-08  2.7383267001837877e-09  2.2390752394444883e-04  1.6677174452148660e-03  4.0920807756613822e-05  4.6947571930716614e-04  2.3474841716431280e-03  2.1252396792544967e-05  8.2281180655148569e-06  7.2401062329580354e-05  7.4536271190076592e-08  1.7979453099682529e-03  1.8456328223871846e-05  1.7541194079956600e-03  2.4316368612200360e-04  1.6513539728853586e-05  3.3552048564108254e-04  1.2662275847419898e-05  5.8864410519847822e-04  8.8365177664180282e-05  3.1676674235615879e-05  1.9346184678240708e-04  8.4552707228216853e-04  7.9802759181386897e-05  1.6848705125453690e-03  1.3471087223608450e-07  3.1416978378529690e-03  1.2125309382745825e-07  7.3531662602388395e-04  9.6656282959909777e-04  7.0054213079752163e-06  2.4696926565059598e-06  3.5446669310072341e-04  1.1822375853983733e-03  6.1652116582803151e-04  6.4256478870869408e-06  5.8432840274577029e-05  9.0391878567691022e-04  1.1850507835935410e-03  1.2180625022515216e-03  1.8773613937179392e-05  4.8401463259836307e-05  2.9823904859720018e-06  1.4491798903472828e-06  1.3931758666601322e-08  1.5671298252505839e-05  1.8835517190195212e-08  1.3336933756689309e-05  1.4090714844732548e-05  6.2386734404030355e-05  2.2113242386768459e-07  6.8110663956293029e-04  3.1266080697380364e-03  3.6546027817339799e-03  4.7762285578124917e-05  1.8485401407151625e-05  3.6932501780022713e-03  3.2692906245098850e-03  7.3875516998751567e-08  2.5225318600768988e-03  2.2810192973153102e-04  3.8602637420982089e-03  2.3968172863799827e-04  2.2711462339207092e-07  1.9807287264773368e-03  1.1919486168597668e-04  2.6616346757411796e-03  2.8640634019987014e-05  3.0326509510895637e-09  3.0144687735556286e-03  2.5449577128591890e-07  1.0759283962507875e-03  1.9352885124550917e-05  6.8994550908565258e-07  1.7350865616195715e-09  1.8134295813354666e-03  1.1880158557863382e-04  1.0659854110199737e-03  1.1132132262981114e-03  1.2608663496567504e-03  2.5854101919871231e-05  6.7676551602511128e-04  7.0156088209071564e-10  2.1990111862021937e-03  2.3513574166053786e-08  3.3333965646316832e-04  3.8858511136558769e-03  5.8726176392531722e-03  5.8821957489057859e-07  2.7753006867951837e-03  3.8727841655210381e-04  2.4224963023503502e-04  1.9373061019159243e-04  1.6003756523287187e-04  2.9073787170601205e-05  4.7230039046422043e-07  1.3682588169935511e-04  1.0751643296537664e-04  2.0710342122070998e-03  1.3223689163622851e-03  2.0019225085836979e-03  4.5800776689552497e-04  3.3183517195269307e-04  2.8684965916804649e-03  2.2489801414313199e-04  8.1463459630348283e-07  2.6878175126949038e-03  2.4068485280431188e-03  3.0872417842968424e-03  3.1340654084354037e-03  1.1187917949572166e-09  5.3075495220598944e-03  1.0253097201633277e-03  9.0377431291119130e-04  2.4459873963743528e-03  3.8424407299646798e-04  2.7102883117782958e-03  1.8947787000294516e-06  2.7844283499053588e-03  1.6002904366553949e-03  8.7542096738717632e-05  1.0676753634679833e-03  1.0092624407613451e-08  1.8979225436168014e-04  2.3148428662775025e-03  9.4921211605251884e-05  1.1953413949465014e-04  2.3053505357379964e-05  1.1144864066796965e-04  4.1698572052253398e-04  2.4412581169747211e-04  9.6007956601926840e-05  2.3552532209534581e-03  7.1207806778318147e-07  3.3336258644334006e-09  6.2246904403304870e-09  1.8958389941271335e-09  3.6163158726575865e-03  9.0403868806919083e-07  6.2546951524965522e-08  9.9440481261738284e-04  8.9546578333296318e-05  6.0315575848317451e-07  3.4926467318491359e-07  2.6219841985650910e-05  8.3138526945882637e-04  5.8643365751025699e-04  4.4128647694553026e-04  4.9856581282908707e-05  5.0139262998350853e-04  9.3211238420325008e-04  2.0106955776218855e-03  1.7528359008631062e-03  2.9015671697985215e-03  3.7142860839072564e-03  3.6966619071365373e-03  1.9658040115205560e-04  2.0598190482586906e-05  2.6276307819108443e-05  1.4208057642699350e-05  2.4344989666217729e-03  2.1321652036134424e-05  2.8400116281341811e-04  3.7836831536487299e-03  4.4987033282263078e-04  1.5650704880474800e-09  7.3065232080075622e-05  1.1797246724871028e-04  4.4058197931958757e-05  1.9271412607537932e-05  2.5942407507762956e-03  2.0269443949585468e-07  2.8935629831144526e-04  2.2784972272911117e-03  1.8727990751647798e-04  2.3339024915023823e-03  4.0662386642764732e-05  2.8668227897027293e-05  1.9526413206427593e-07  1.5332422614153550e-08  3.4073976054702815e-03  1.1054932148603205e-04  7.3494273849412993e-05  6.6031632373737121e-05  4.6844117021511674e-04  2.9588129594180693e-04  3.0273137455278784e-05  2.1406863017365954e-06  3.5412965233164533e-03  1.2817262908924843e-06  6.9959465854836242e-08  2.2438533866049181e-08  3.6684955755761821e-03  9.1040607245102532e-04  3.7126687871870897e-06  1.2176895541469775e-03  3.3195910893099020e-06  7.0963815290980218e-04  2.6997688686183392e-04  1.3899838818900480e-03  4.9641368884644952e-05  6.0906344057712734e-07  2.3307466680124499e-05  8.8266039754246765e-04  1.8853477515018032e-03  2.9920255707081797e-03  1.5022194407292672e-05  4.268993045137949