<?xml version="1.0"?>
<VTKFile type="UnstructuredGrid"  version="0.1"  >
<UnstructuredGrid>
<Piece  NumberOfPoints="3920" NumberOfCells="6615">
<Points>
<DataArray  type="Float64"  NumberOfComponents="3"  format="ascii">1.25 0 0  1.249623523370255 0.03067653565364036 0  1.248494320256466 0.06133459290927252 0  1.246613070848363 0.09195570449958429 0  1.243980908340246 0.1225214254119508 0  1.240599418248387 0.1530133439990203 0  1.236470637455976 0.1834130930692022 0  1.231597052986177 0.2137023609503765 0  1.225981600504038 0.2438629025201603 0  1.219627662548161 0.2738765501960873 0  1.21253906649318 0.3037252248790798 0  1.2047200822443 0.333390946843623 0  1.196175419665261 0.3628558465680779 0  1.186910225741296 0.3921021754986144 0  1.176930081478776 0.4211123167402751 0  1.166240998543424 0.4498687956687352 0  1.154849415639108 0.4783542904563622 0  1.142762194629413 0.5065516425062373 0  1.129986616404304 0.5344438667878526 0  1.116530376494394 0.5620141620682582 0  1.102401580435444 0.5892459210324971 0  1.087608738885889 0.61612274028723 0  1.07216076250034 0.642628430241527 0  1.056066956562134 0.6687470248588714 0  1.039337015378182 0.6944627912745027 0  1.02198101643948 0.7197602392723067 0  1.004009414350806 0.7446241306155417 0  0.9854330345332579 0.7690394882257835 0  0.9662630667034212 0.7929916052045569 0  0.9465110581331058 0.8164660536922209 0  0.9261889066936989 0.8394486935587729 0  0.9053088536893338 0.8619256809213336 0  0.8838834764831844 0.8838834764831843 0  0.8619256809213337 0.9053088536893337 0  0.8394486935587729 0.9261889066936989 0  0.8164660536922209 0.9465110581331055 0  0.7929916052045569 0.9662630667034212 0  0.7690394882257835 0.9854330345332578 0  0.7446241306155419 1.004009414350806 0  0.7197602392723067 1.02198101643948 0  0.6944627912745028 1.039337015378182 0  0.6687470248588716 1.056066956562134 0  0.642628430241527 1.07216076250034 0  0.6161227402872301 1.087608738885889 0  0.5892459210324973 1.102401580435444 0  0.5620141620682583 1.116530376494394 0  0.5344438667878527 1.129986616404304 0  0.5065516425062373 1.142762194629413 0  0.4783542904563623 1.154849415639108 0  0.4498687956687353 1.166240998543424 0  0.4211123167402751 1.176930081478776 0  0.3921021754986145 1.186910225741296 0  0.3628558465680779 1.196175419665261 0  0.333390946843623 1.2047200822443 0  0.30372522487908 1.21253906649318 0  0.2738765501960872 1.219627662548161 0  0.2438629025201604 1.225981600504038 0  0.2137023609503767 1.231597052986177 0  0.1834130930692022 1.236470637455976 0  0.1530133439990203 1.240599418248387 0  0.122521425411951 1.243980908340246 0  0.09195570449958432 1.246613070848363 0  0.06133459290927266 1.248494320256466 0  0.03067653565364033 1.249623523370255 0  7.654042494670958e-17 1.25 0  -0.03067653565364018 1.249623523370255 0  -0.06133459290927251 1.248494320256466 0  -0.09195570449958416 1.246613070848363 0  -0.1225214254119508 1.243980908340246 0  -0.1530133439990202 1.240599418248387 0  -0.1834130930692021 1.236470637455976 0  -0.2137023609503766 1.231597052986177 0  -0.2438629025201602 1.225981600504038 0  -0.2738765501960871 1.219627662548161 0  -0.3037252248790798 1.21253906649318 0  -0.3333909468436229 1.2047200822443 0  -0.3628558465680777 1.196175419665261 0  -0.3921021754986143 1.186910225741296 0  -0.4211123167402749 1.176930081478776 0  -0.4498687956687352 1.166240998543424 0  -0.4783542904563621 1.154849415639108 0  -0.5065516425062372 1.142762194629413 0  -0.5344438667878524 1.129986616404304 0  -0.5620141620682584 1.116530376494394 0  -0.5892459210324972 1.102401580435444 0  -0.61612274028723 1.087608738885889 0  -0.642628430241527 1.07216076250034 0  -0.6687470248588713 1.056066956562134 0  -0.6944627912745025 1.039337015378182 0  -0.7197602392723067 1.02198101643948 0  -0.7446241306155417 1.004009414350806 0  -0.7690394882257834 0.9854330345332579 0  -0.7929916052045567 0.9662630667034213 0  -0.8164660536922207 0.9465110581331059 0  -0.8394486935587731 0.9261889066936988 0  -0.8619256809213337 0.9053088536893337 0  -0.8838834764831843 0.8838834764831844 0  -0.9053088536893334 0.8619256809213338 0  -0.9261889066936986 0.8394486935587732 0  -0.9465110581331058 0.8164660536922208 0  -0.9662630667034212 0.7929916052045569 0  -0.9854330345332578 0.7690394882257836 0  -1.004009414350806 0.7446241306155419 0  -1.02198101643948 0.7197602392723068 0  -1.039337015378182 0.6944627912745027 0  -1.056066956562134 0.6687470248588714 0  -1.07216076250034 0.6426284302415273 0  -1.087608738885889 0.6161227402872302 0  -1.102401580435444 0.5892459210324973 0  -1.116530376494394 0.5620141620682586 0  -1.129986616404304 0.5344438667878525 0  -1.142762194629413 0.5065516425062374 0  -1.154849415639108 0.4783542904563624 0  -1.166240998543424 0.4498687956687354 0  -1.176930081478776 0.4211123167402754 0  -1.186910225741296 0.3921021754986143 0  -1.196175419665261 0.362855846568078 0  -1.2047200822443 0.3333909468436231 0  -1.21253906649318 0.3037252248790801 0  -1.219627662548161 0.2738765501960876 0  -1.225981600504038 0.2438629025201608 0  -1.231597052986177 0.2137023609503765 0  -1.236470637455976 0.1834130930692023 0  -1.240599418248387 0.1530133439990204 0  -1.243980908340246 0.122521425411951 0  -1.246613070848363 0.09195570449958466 0  -1.248494320256466 0.06133459290927246 0  -1.249623523370255 0.03067653565364041 0  -1.25 1.530808498934192e-16 0  -1.249623523370255 -0.0306765356536401 0  -1.248494320256466 -0.06133459290927215 0  -1.246613070848363 -0.09195570449958437 0  -1.243980908340246 -0.1225214254119507 0  -1.240599418248387 -0.1530133439990201 0  -1.236470637455976 -0.183413093069202 0  -1.231597052986177 -0.2137023609503762 0  -1.225981600504038 -0.2438629025201605 0  -1.219627662548161 -0.2738765501960873 0  -1.21253906649318 -0.3037252248790798 0  -1.2047200822443 -0.3333909468436228 0  -1.196175419665261 -0.3628558465680776 0  -1.186910225741296 -0.392102175498614 0  -1.176930081478776 -0.4211123167402752 0  -1.166240998543424 -0.4498687956687352 0  -1.154849415639108 -0.4783542904563621 0  -1.142762194629413 -0.5065516425062371 0  -1.129986616404304 -0.5344438667878523 0  -1.116530376494394 -0.5620141620682583 0  -1.102401580435444 -0.5892459210324971 0  -1.087608738885889 -0.6161227402872299 0  -1.07216076250034 -0.6426284302415269 0  -1.056066956562134 -0.6687470248588712 0  -1.039337015378182 -0.6944627912745025 0  -1.02198101643948 -0.7197602392723067 0  -1.004009414350806 -0.7446241306155416 0  -0.9854330345332579 -0.7690394882257834 0  -0.9662630667034213 -0.7929916052045566 0  -0.946511058133106 -0.8164660536922207 0  -0.9261889066936989 -0.8394486935587731 0  -0.9053088536893338 -0.8619256809213336 0  -0.8838834764831847 -0.8838834764831843 0  -0.8619256809213338 -0.9053088536893334 0  -0.8394486935587733 -0.9261889066936986 0  -0.8164660536922214 -0.9465110581331053 0  -0.7929916052045574 -0.9662630667034209 0  -0.7690394882257841 -0.9854330345332574 0  -0.7446241306155414 -1.004009414350806 0  -0.7197602392723066 -1.02198101643948 0  -0.6944627912745027 -1.039337015378182 0  -0.6687470248588716 -1.056066956562134 0  -0.6426284302415273 -1.07216076250034 0  -0.6161227402872302 -1.087608738885889 0  -0.5892459210324973 -1.102401580435444 0  -0.5620141620682586 -1.116530376494394 0  -0.5344438667878531 -1.129986616404304 0  -0.506551642506238 -1.142762194629413 0  -0.4783542904563629 -1.154849415639108 0  -0.4498687956687349 -1.166240998543424 0  -0.4211123167402749 -1.176930081478776 0  -0.3921021754986143 -1.186910225741296 0  -0.3628558465680781 -1.196175419665261 0  -0.3333909468436231 -1.2047200822443 0  -0.3037252248790802 -1.21253906649318 0  -0.2738765501960876 -1.219627662548161 0  -0.2438629025201608 -1.225981600504038 0  -0.2137023609503771 -1.231597052986176 0  -0.1834130930692029 -1.236470637455976 0  -0.1530133439990199 -1.240599418248387 0  -0.1225214254119506 -1.243980908340246 0  -0.09195570449958419 -1.246613070848363 0  -0.06133459290927254 -1.248494320256466 0  -0.03067653565364049 -1.249623523370255 0  -2.296212748401287e-16 -1.25 0  0.03067653565364003 -1.249623523370255 0  0.06133459290927207 -1.248494320256466 0  0.09195570449958373 -1.246613070848363 0  0.1225214254119501 -1.243980908340246 0  0.1530133439990195 -1.240599418248387 0  0.1834130930692024 -1.236470637455976 0  0.2137023609503766 -1.231597052986177 0  0.2438629025201604 -1.225981600504038 0  0.2738765501960872 -1.219627662548161 0  0.3037252248790797 -1.21253906649318 0  0.3333909468436227 -1.2047200822443 0  0.3628558465680776 -1.196175419665261 0  0.3921021754986139 -1.186910225741296 0  0.4211123167402745 -1.176930081478776 0  0.4498687956687345 -1.166240998543424 0  0.4783542904563625 -1.154849415639108 0  0.5065516425062375 -1.142762194629413 0  0.5344438667878527 -1.129986616404304 0  0.5620141620682583 -1.116530376494394 0  0.589245921032497 -1.102401580435444 0  0.6161227402872298 -1.087608738885889 0  0.6426284302415269 -1.07216076250034 0  0.6687470248588712 -1.056066956562134 0  0.6944627912745023 -1.039337015378182 0  0.7197602392723061 -1.02198101643948 0  0.7446241306155411 -1.004009414350806 0  0.7690394882257838 -0.9854330345332576 0  0.792991605204557 -0.9662630667034211 0  0.8164660536922209 -0.9465110581331058 0  0.8394486935587729 -0.9261889066936989 0  0.8619256809213336 -0.9053088536893338 0  0.8838834764831842 -0.8838834764831847 0  0.9053088536893333 -0.8619256809213339 0  0.9261889066936986 -0.8394486935587733 0  0.9465110581331053 -0.8164660536922214 0  0.9662630667034209 -0.7929916052045574 0  0.9854330345332574 -0.7690394882257843 0  1.004009414350806 -0.7446241306155416 0  1.02198101643948 -0.7197602392723066 0  1.039337015378182 -0.6944627912745027 0  1.056066956562134 -0.6687470248588716 0  1.07216076250034 -0.6426284302415274 0  1.087608738885889 -0.6161227402872304 0  1.102401580435443 -0.5892459210324974 0  1.116530376494394 -0.5620141620682587 0  1.129986616404304 -0.5344438667878532 0  1.142762194629413 -0.50655164250623
[...]
<PointData  Scalars="f_6047257"> 
<DataArray  type="Float64"  Name="f_6047257"  format="ascii">-8.3019247818355204e+00  -8.9828978681359981e+00  -9.5829448150097623e+00  -1.0217024977422984e+01  -1.0847939550883726e+01  -1.1488250859426657e+01  -1.2117970945861160e+01  -1.2765462530762653e+01  -1.3361117204620664e+01  -1.4052302301120410e+01  -1.4671170258352360e+01  -1.5295023693451908e+01  -1.5977634603224390e+01  -1.6599706810807454e+01  -1.7259264921711750e+01  -1.7878872317076961e+01  -1.8603717718100107e+01  -1.9225411037936141e+01  -1.9910959356793828e+01  -2.0569366909898228e+01  -2.1254958133095908e+01  -2.1948817501041972e+01  -2.2634802173912515e+01  -2.3319653822583106e+01  -2.4039552909996811e+01  -2.4738056357312814e+01  -2.5490908833929232e+01  -2.6192585086160740e+01  -2.6942583176274088e+01  -2.7687643730260234e+01  -2.8460630283569341e+01  -2.9242243047075135e+01  -3.0014272070147346e+01  -3.0815949685284533e+01  -3.1660767824081113e+01  -3.2458512774181941e+01  -3.3324598860314701e+01  -3.4184901534775896e+01  -3.5031873833810529e+01  -3.6017327900958172e+01  -3.6833142166796407e+01  -3.7854579340384262e+01  -3.8755219242077473e+01  -3.9813174477754202e+01  -4.0760653442516769e+01  -4.1799038037221770e+01  -4.2896930510924093e+01  -4.3897388154096006e+01  -4.5064113227272507e+01  -4.6176066952666751e+01  -4.7419679725283139e+01  -4.8526563943072247e+01  -4.9884958026171120e+01  -5.1058683186968572e+01  -5.2432531379326697e+01  -5.3776443636385046e+01  -5.5160926524969234e+01  -5.6573644461404108e+01  -5.8140604664625350e+01  -5.9666961376978428e+01  -6.1247667767291432e+01  -6.2950405992444900e+01  -6.4649577750904740e+01  -6.6352770093770346e+01  -6.8281211863721111e+01  -6.9963523281889579e+01  -7.1946447357065594e+01  -7.3822752114517186e+01  -7.5969336006937311e+01  -7.7886337181785009e+01  -8.0063302619965881e+01  -8.1932341600800356e+01  -8.3750299261658625e+01  -8.5877605438095912e+01  -8.7528836264420661e+01  -8.9709543508080529e+01  -9.1413385931578176e+01  -9.4119747160195672e+01  -9.5807238716230330e+01  -9.8168315759864811e+01  -1.0000591763608131e+02  -1.0202122798225615e+02  -1.0407909164075907e+02  -1.0602611261044031e+02  -1.0801901804437198e+02  -1.1051441673302141e+02  -1.1206188933809163e+02  -1.1423510356952900e+02  -1.1749290127620617e+02  -1.1902791647099463e+02  -1.2097094545566223e+02  -1.2418512206055404e+02  -1.2625345911916766e+02  -1.2822831343311037e+02  -1.3032957421751263e+02  -1.3267845639534889e+02  -1.3496545320032948e+02  -1.3765317095395628e+02  -1.3706701650857835e+02  -1.4197951361623271e+02  -1.4483080157683483e+02  -1.4556807256566864e+02  -1.4705055179034690e+02  -1.4912662255611971e+02  -1.5166368171483950e+02  -1.5242793881369786e+02  -1.5338583654836393e+02  -1.5337407810397286e+02  -1.5272574766918893e+02  -1.5170575170405479e+02  -1.5023586577997094e+02  -1.5057982299184016e+02  -1.4851248903064266e+02  -1.4433168096317382e+02  -1.3862644954308897e+02  -1.2687237235818561e+02  -1.0989142416968579e+02  -9.4788448491825136e+01  -7.5854266309239307e+01  -4.9999297609381323e+01  -2.5303203939973184e+01  -8.8100124806173219e-01  2.7365820492114636e+01  5.8039708243631644e+01  8.9223623994668714e+01  1.1984316301669189e+02  1.5118230998293024e+02  1.7974548997137202e+02  2.0684498514264885e+02  2.3096146861606996e+02  2.5277459511058626e+02  2.7183696663483767e+02  2.8839536710038283e+02  3.0145006539498274e+02  3.0884358645924306e+02  3.1726864110118299e+02  3.1910186724126584e+02  3.2133189164870868e+02  3.2068300178071144e+02  3.1997982743008873e+02  3.1696360488213980e+02  3.1110567554102641e+02  3.0839106154713119e+02  3.0320472762234823e+02  2.9386811303126683e+02  2.8637951408462516e+02  2.8054602947363065e+02  2.7065270940475358e+02  2.6071213497416352e+02  2.5322285678174953e+02  2.4476398869969142e+02  2.3669299575603560e+02  2.2794366074850038e+02  2.1986234619062884e+02  2.1134790396995879e+02  2.0334186279005451e+02  1.9599611383787115e+02  1.8747974983701013e+02  1.8152215551513518e+02  1.7455059048781226e+02  1.6873141386608398e+02  1.6222180054955726e+02  1.5641265702465660e+02  1.5154570337445409e+02  1.4534708265102728e+02  1.3933990981702095e+02  1.3380163647692027e+02  1.2945354650987213e+02  1.2473983592636870e+02  1.2045752414961443e+02  1.1600610778487990e+02  1.1126091751440740e+02  1.0746655307471302e+02  1.0336056872906991e+02  9.9833309555141909e+01  9.6278424834542236e+01  9.3094208930185658e+01  8.9417692843641703e+01  8.6704012081846727e+01  8.3026864299548521e+01  8.0474665063141614e+01  7.7327219467562998e+01  7.4542460146091869e+01  7.2003245082574395e+01  6.9658939369852732e+01  6.6928166785647164e+01  6.4794618949550596e+01  6.2543121181065409e+01  6.0338998606593186e+01  5.8200146616499723e+01  5.6170454240298646e+01  5.4321307350976838e+01  5.2249051940944611e+01  5.0528481433314319e+01  4.8707292163653761e+01  4.6945896068526700e+01  4.5410720119603845e+01  4.3665831961216732e+01  4.2156419198777513e+01  4.0635657827527872e+01  3.9139084775168484e+01  3.7785687213340651e+01  3.6380721931732296e+01  3.5090804595874246e+01  3.3710361618756430e+01  3.2510347853960489e+01  3.1267801649868233e+01  3.0048496009709112e+01  2.8885922891058559e+01  2.7840101414688569e+01  2.6607684676460849e+01  2.5598943036320470e+01  2.4555806372304982e+01  2.3522215344936185e+01  2.2537602513652963e+01  2.1524705902402388e+01  2.0581241277567671e+01  1.9657277786199888e+01  1.8716186519386074e+01  1.7844272981272688e+01  1.6963608755608877e+01  1.6124779363787230e+01  1.5250990220927404e+01  1.4433573172197853e+01  1.3613524028218690e+01  1.2816426780299103e+01  1.2024656676218235e+01  1.1255348641850308e+01  1.0458056872942958e+01  9.7442123946382377e+00  8.9682854100019505e+00  8.2452618863851956e+00  7.5375935351144285e+00  6.8111500568213765e+00  6.0958362554586145e+00  5.3758693678231451e+00  4.6970104137403279e+00  4.0160432134854647e+00  3.3240611711250923e+00  2.6243180532236567e+00  1.9886711025607469e+00  1.3179842712902550e+00  6.2436424073459174e-01  5.3977982137095133e-03  -6.6990307874787292e-01  -1.2925589936820576e+00  -1.9692519442544874e+00  -2.6060904807964937e+00  -3.2635713902913590e+00  -3.8816850143900026e+00  -4.5227424588749674e+00  -5.1652411478141849e+00  -5.7969089046222075e+00  -6.4331766381032356e+00  -7.0600951837570323e+00  -7.7069796840220288e+00  -9.0474835233864059e+00  -8.3535769059346183e+00  -7.6300451936242757e+00  -6.9462568537965153e+00  -6.1840093054496394e+00  -5.3129684793101859e+00  -4.5110153073703971e+00  -3.7192821473061342e+00  -2.9611180757306585e+00  -2.2279597479724527e+00  -1.4709988221202772e+00  -7.0343622854146370e-01  5.9405268218060851e-02  8.4010603427051911e-01  1.5971987734365192e+00  2.2588219914308549e+00  3.0620946407540037e+00  3.9187159831375902e+00  4.8164803164156362e+00  5.6525047905122907e+00  6.4762613080231537e+00  7.2581849390241659e+00  8.0373012333210845e+00  8.9404582565984967e+00  9.7501618103256185e+00  1.0645682239005987e+01  1.1673766351683570e+01  1.2615801658102722e+01  1.3528137480168114e+01  1.4412808745006148e+01  1.5166041248064074e+01  1.6212126772351073e+01  1.7255529975414024e+01  1.8321217704789149e+01  1.9275721020669444e+01  2.0399935168350943e+01  2.1393172351222706e+01  2.2593860311329166e+01  2.3691609688251660e+01  2.4817379171415563e+01  2.6023644109463227e+01  2.7248906521319139e+01  2.8557031835283816e+01  2.9644100874050508e+01  3.1054754749956000e+01  3.2418906489725529e+01  3.3743855465150546e+01  3.5091577655117192e+01  3.6615074239947411e+01  3.8049128060930428e+01  3.9629237738557904e+01  4.1233916310873816e+01  4.2857408237324464e+01  4.4594688916021482e+01  4.6236291857780316e+01  4.8094866002133806e+01  4.9939800048985354e+01  5.1831713580622448e+01  5.3932875696377252e+01  5.5821760907336099e+01  5.7839330674274215e+01  5.9915514235654392e+01  6.2162330952788054e+01  6.4315417304979889e+01  6.6702878231505593e+01  6.9146642294470411e+01  7.2038574246407549e+01  7.4767294540073706e+01  7.7595312811363513e+01  8.0241219240603755e+01  8.3111117443887466e+01  8.6048617718540697e+01  8.9254856493266146e+01  9.2206332805517604e+01  9.5291636262845259e+01  9.9028719390458818e+01  1.0254691992947735e+02  1.0601358452796703e+02  1.0960177995999352e+02  1.1375785637241225e+02  1.1749742285954987e+02  1.2129924407129896e+02  1.2598123718431501e+02  1.3057908674060837e+02  1.3513160875588568e+02  1.3981228100860650e+02  1.4491117504969321e+02  1.4915861607610248e+02  1.5422570730836196e+02  1.6000693904349993e+02  1.6527688481522262e+02  1.7082400541436678e+02  1.7668669173905900e+02  1.8318467508787054e+02  1.8924436967115062e+02  1.9678178645629703e+02  2.0318629754984164e+02  2.1026130161117268e+02  2.1762670922374190e+02  2.2465304003663485e+02  2.3267265270271540e+02  2.3872912808456766e+02  2.4697041002487580e+02  2.5477849467051260e+02  2.6351059423195386e+02  2.7136628647562350e+02  2.7983975827364003e+02  2.8575707134760353e+02  2.9187370453482083e+02  3.0130836435263285e+02  3.0716693596565364e+02  3.1102981629336631e+02  3.1754593721396844e+02  3.2374006502514447e+02  3.2952157990873405e+02  3.3226231553207555e+02  3.3649654587155504e+02  3.3773311947808685e+02  3.3731231468197677e+02  3.3690463998986382e+02  3.3345299820418143e+02  3.2837582007217202e+02  3.2303286585040257e+02  3.1146189870830733e+02  2.9854601389920481e+02  2.8414155383182253e+02  2.6554220866710767e+02  2.4500731309056650e+02  2.2393614236620638e+02  2.0038807601278083e+02  1.7531772344444460e+02  1.4878493886727514e+02  1.2049943111931813e+02  9.2925663998171814e+01  6.3901996969740928e+01  3.8116142807018811e+01  1.1316368471455432e+01  -1.1230651281129118e+01  -3.3255372794285130e+01  -5.5773405645011991e+01  -7.7016220467147519e+01  -9.7256846744169593e+01  -1.0947279852181384e+02  -1.2404442217290888e+02  -1.3665782553764762e+02  -1.4683670811478274e+02  -1.4920007281531150e+02  -1.5370202304624246e+02  -1.5567072894722850e+02  -1.5645558257866722e+02  -1.5654601307415879e+02  -1.5889008001520901e+02  -1.5989799689712393e+02  -1.6046788440719033e+02  -1.5931837267730310e+02  -1.6060546694537666e+02  -1.5849708612383600e+02  -1.5729339336797591e+02  -1.5463294016288876e+02  -1.5339932216099353e+02  -1.5211399324764193e+02  -1.5070845000220319e+02  -1.4859115757516264e+02  -1.4589849101228882e+02  -1.4402294214534874e+02  -1.4164628243313550e+02  -1.3991300512382429e+02  -1.3761030911584029e+02  -1.3532017784132620e+02  -1.3276461793984851e+02  -1.2996348671595487e+02  -1.2775331124771205e+02  -1.2585840536649900e+02  -1.2368882250371331e+02  -1.2144071388556394e+02  -1.1825186651693751e+02  -1.1603337870184234e+02  -1.1355288834967214e+02  -1.1188443974335321e+02  -1.0966942597891091e+02  -1.0776674001029789e+02  -1.0574344764029307e+02  -1.0345812236728554e+02  -1.0150243439186501e+02  -9.9451765180543632e+01  -9.7088860452049104e+01  -9.4876140911903718e+01  -9.2613761508305970e+01  -9.0647314305546104e+01  -8.8466770434608165e+01  -8.6387844958417318e+01  -8.4700962067857816e+01  -8.2686040872760145e+01  -8.0452525627576890e+01  -7.8577042102748976e+01  -7.6569341235811294e+01  -7.4340518066825993e+01  -7.2355930408137439e+01  -7.0439012892904245e+01  -6.8463775994726248e+01  -6.6537400728532347e+01  -6.4712908613985078e+01  -6.2950370069952093e+01  -6.1347803135550443e+01  -5.9760808444049573e+01  -5.8357382109963055e+01  -5.6691252626432664e+01  -5.5034641086005948e+01  -5.3551857509881586e+01  -5.2113239081363758e+01  -5.0778306591811820e+01  -4.9574949116679569e+01  -4.8173874561465290e+01  -4.7036713053895475e+01  -4.5708144516930076e+01  -4.4427227218429024e+01  -4.3357212538915036e+01  -4.2146210218689021e+01  -4.1017139670665379e+01  -3.9978529957347611e+01  -3.8974285362434678e+01  -3.7768239293412336e+01  -3.6907696092960819e+01  -3.5813678797870764e+01  -3.4901207979438261e+01  -3.3950957256078610e+01  -3.3072635677633258e+01  -3.2029866417988259e+01  -3.1104814405404746e+01  -3.0216261386679310e+01  -2.9399804938714144e+01  -2.8534988012993608e+01  -2.7688535057752301e+01  -2.6825079152193322e+01  -2.5948092090416353e+01  -2.5202767342764457e+01  -2.4418052794829624e+01  -2.3540721892442072e+01  -2.2729858541327626e+01  -2.1844512589638267e+01  -2.1183130625363752e+01  -2.0311966425664163e+01  -1.9581767408560825e+01  -1.8766336889246205e+01  -1.8099509924360863e+01  -1.7255235607470375e+01  -1.6514626616327664e+01  -1.5733827656486310e+01  -1.5036804015563382e+01  -1.4363432815767833e+01  -1.3665376538693513e+01  -1.2783353539892913e+01  -1.1962925332834097e+01  -1.1219421536117435e+01  -1.0538854239871561e+01  -9.7200933905318223e+00  -8.0157761236391210e+00  -1.3741299778244873e+01  -2.4040766094250348e+00  -1.9308899849979465e+01  3.4660461294979221e+00  -2.5035620420207589e+01  9.2377606522485536e+00  -3.1134372324957827e+01  1.5441909447583694e+01  -3.7996170382475114e+01  2.2712126620734754e+01  -4.4761523284008042e+01  2.9666148093223569e+01  -5.1912047040428725e+01  3.8206068132628602e+01  -5.9473708064495789e+01  4.7735304518029658e+01  -6.7722344554176473e+01  -1.0864460804135131e+01  5.6635052260042833e+01  -5.2207180878175148e+00  -1.6340068020842057e+01  5.0981513475852447e-01  -1.0929036268707591e+01  5.4211614454803347e-01  -4.9194653656943679e+00  -1.6198475930598828e+01  -7.6184972828082934e+01  6.3586664597267033e+00  -2.2132192928211438e+01  -2.1640818240731125e+01  6.6097514136253295e+01  6.3119638476976130e+00  -2.8017971174153580e+01  1.2323970615900517e+01  -2.7415317904333108e+01  1.2092784843685607e+01  -8.3542183770407945e+00  -8.4723742640335416e+01  -1.3340863381262052e+01  -2.0321195961258844e+00  -7.8560147106679619e+00  -3.4471455133081896e+01  1.9095931097262902e+01  -1.8876786617764118e+01  -3.3820130310019138e+01  1.9021332095898011e+01  7.6595922546729994e+01  3.7339526991298353e+00  -2.5180622737620208e+01  9.3173247778076913e+00  -9.2826584436372912e+01  2.6022387987892976e+01  -4.1306258008897636e+01  3.4049666703204653e+00  -2.1866865234294153e+00  8.7179462271082329e+01  -3.1574109957489433e+01  1.5625461528334501e+01  1.5433010109303275e+01  -3.9904251896722350e+01  -1.3539038325491543e+01  -1.8872516796073235e+01  2.6177764956694098e+01  -2.4458577837475971e+01  -3.0470016543796238e+01  -4.8005223261404588e+01  3.3001329202037866e+01  -1.0132787941923425e+02  -3.7355872948943968e+01  9.8307052964109317e+01  9.1923593909196608e+00  -4.7705872861954646e+01  3.3903508348309174e+01  2.2090067777742057e+01  2.2450069170197153e+01  -1.0782768307483644e+02  -1.6962365532914880e+01  -4.6551050414605717e+00  -4.4453642822136679e+01  -5.5888564515579183e+01  4.2865803422705341e+01  -4.3550799681354142e+01  2.9283820873232180e+01  -1.1518691585971501e+01  1.1122196624922142e+02  4.1744032781780554e+01  -5.5314647566040186e+01  -2.2623745802521178e+01  -6.3766172774049934e+01  -3.6625276148719514e+01  5.7666523162668835e+00  2.9967618505623143e+01  -2.0458906862211595e-01  -1.1408637256524648e+02  -5.1418198998559809e+01  3.6996450185521446e+01  1.1607663366401761e+01  5.1403205371418068e+01  -2.8576571203500617e+01  1.2410972512379739e+02  -9.8891006813475908e+00  -1.4991142658234164e+01  -6.5772461913274505e+00  -6.3163441940303045e+01  1.8999366964204958e+00  -3.7840574812832761e+00  -3.5875866080350932e-01  5.2161444060503101e+01  -2.0649076376109026e+01  -4.0702210419162718e+01  -6.7003318327401100e+00  -1.1761335959626065e+01  -1.2059316757144479e+02  -5.1053830585351307e+01  -2.0315513937422704e+01  -9.2388051896419796e+00  -5.9528682308129497e+01  -2.3353365739229865e+01  4.6439634855716989e+01  -7.0481050252453471e+01  -7.2078039296739988e+01  -9.3040350064423745e+00  -1.6543903744857585e-01  -1.6960481875178782e+01  3.7684992457211166e+01  1.3932733782516129e+02  -6.3257024056217288e+00  -3.4668330571302217e+00  -3.3532429495626424e+01  -1.1480806397478688e+01  -8.0921165927347616e+01  1.6028886853358415e+00  4.6656143896523396e+01  -9.4542431751568348e+00  6.0617436273911380e+01  -6.0179268813463445e+00  -3.5810012401774651e+00  -1.2599495023298334e+02  6.0880691120920460e+01  7.6098354454700674e+00  5.3305024058341681e+00  5.3835372883017394e+00  -2.9519689984315963e+01  -1.4836935772127580e+01  -1.7157380333044884e+01  -1.2399773280907795e+01  2.1021580038080883e+00  -1.5363674526646776e+01  2.5436690707558562e+01  -3.0011003137301650e+01  -2.6836891181277686e+01  -1.0587510154119866e+00  1.7958747745569635e+01  -2.3754425156892527e+01  -1.7832985808082171e+01  1.9228568780364279e+00  1.0524944302006636e+01  1.3718742316611330e+01  1.1075225936645603e+01  4.6186580095271728e+00  -6.7661793513190347e+01  2.0303709648931974e+01  -5.8887699492257951e+01  1.3902004324071211e+01  -1.4840333938121670e+01  -2.0156276403996852e+01  -2.2237120017838489e+01  8.0491280021302849e+00  -3.4943652417220057e+00  4.6113444002961179e+00  -3.6011938038563102e+01  -4.7580427900361634e+01  7.1164323377279814e+01  1.5147579498242075e+02  -7.8308578822940802e+01  -3.3338134570694940e+01  -2.6837626585588509e+01  8.1042386363035650e+00  1.7906667054153193e+01  1.7653552930954007e+01  2.0188671440785125e+01  5.5633248724219250e+01  -2.8107144695048408e+01  -2.5879925664046965e+01  1.3490136996134028e+01  -2.0877709855656839e+01  1.3457950968584717e+01  1.1110251802722521e+01  6.9962811472148147e+01  -1.3278729624546239e+02  -8.8779695335907348e+01  -3.5425649260266930e+01  7.4761081379067598e+00  -1.2374933557146912e+01  -3.5948350136025418e+01  -5.1733205511567828e+00  1.6806576831532411e+01  -1.0161860096014379e+00  -7.6295121156882274e+01  -7.0967411081170564e+00  -1.8091625125627502e+01  -3.2318084684698874e+01  1.6525591875683523e+02  3.4731434562336467e+01  -2.5903557320329664e+01  2.8606273812895093e+00  1.0402925795915229e+01  -5.4994373610111495e+01  1.7087634739120638e+01  -8.8385307198721165e+01  2.0386502971159363e+01  -3.9316680719490002e+01  -4.2350691804093891e+01  -1.4103356007947362e+01  6.5293839270124565e+01  4.1468483877466610e+01  -2.9805093467526230e+01  -3.2395312317851904e+01  -1.3859823091914407e+02  -3.2078057122843710e+01  2.4259606404609812e+01  2.7287456551610333e+01  -9.7381351721932816e+01  -1.3767255847071757e+01  -8.6760821193356481e+00  -1.8241591143870320e+01  -1.8576065990748398e+00  -2.3242428897397140e+01  8.2227429777236267e+01  7.9326039842973529e+01  -3.4442823912297129e+01  -1.3145960510547203e+01  -1.5692084533222936e+00  4.0091795751927840e+01  -3.9114595606548242e+01  9.1824146608112684e+01  2.1215570167200340e+01  -8.4884389892574831e+01  1.8116145165751036e+02  -9.6569894836812878e+01  -4.2618291544527644e+01  -2.4026800223161484e+01  -2.1950293624393336e+01  -7.6707097403924989e+00  3.6168756695362752e+00  -8.2571535110522248e+01  -2.1478685080586768e+01  9.3025454304347193e+01  -4.2708404601694532e+01  2.5480891875655796e+01  -6.2817685015827841e+01  -1.4273563193391325e+02  2.3790823520592838e+01  3.1579449902101264e+00  2.7474752695241527e+01  -2.6495554015773973e+01  -5.0001663928023724e+01  3.2084021392803251e+01  7.5675995906334265e+01  3.4725204096125942e+01  3.1416505557707485e+01  -4.9216958313861603e+01  -4.6390119269093304e+01  1.9538949796414246e+02  7.3744100583522929e+00  3.3105470569301630e+01  5.2661265373523008e+01  5.6214174701856102e+01  -4.1281465076295490e+01  -3.8684920064176318e+01  2.8225910014559016e+01  2.4111648907391714e+01  -1.9460692860685381e+01  -6.6804808099289588e+01  -1.0025101638193822e+01  -7.2395743094156757e+01  1.4146593201591294e+01  -7.4413967444150316e+01  1.0241208456350564e+02  -1.0363777938639916e+02  -2.5544021774641898e+01  -2.5131984415001789e+01  6.5087994748736349e+01  -4.5564593428230687e+01  8.8684451188986646e+00  -3.7824094824956489e+01  -1.4734488301915556e+02  -9.3121280473966408e+01  8.5282122534536427e+01  3.1414990497495804e+01  4.4511152107825247e+01  -4.7977518994477634e+01  -2.7542605200267332e+00  2.8022317155132708e+01  -3.0800088946413812e+01  -8.0609825168385825e+01  -5.3798871292238147e+01  -1.8644060503838663e+0