<?xml version="1.0"?>
<VTKFile type="UnstructuredGrid"  version="0.1"  >
<UnstructuredGrid>
<Piece  NumberOfPoints="4073" NumberOfCells="7430">
<Points>
<DataArray  type="Float64"  NumberOfComponents="3"  format="ascii">-20 2.5 0  -20 0 0  -1 0 0  -0.9996988186962042 0.02454122852291233 0  -0.9987954562051724 0.04906767432741797 0  -0.9972904566786902 0.07356456359966773 0  -0.9951847266721968 0.09801714032956083 0  -0.99247953459871 0.1224106751992163 0  -0.989176509964781 0.1467304744553618 0  -0.9852776423889412 0.1709618887603012 0  -0.9807852804032304 0.1950903220161286 0  -0.9757021300385285 0.21910124015687 0  -0.970031253194544 0.2429801799032641 0  -0.9637760657954398 0.2667127574748985 0  -0.9569403357322088 0.2902846772544624 0  -0.9495281805930367 0.3136817403988914 0  -0.9415440651830207 0.3368898533922203 0  -0.9329927988347388 0.3598950365349883 0  -0.9238795325112867 0.3826834323650899 0  -0.9142097557035307 0.4052413140049899 0  -0.9039892931234433 0.427555093430282 0  -0.8932243011955152 0.4496113296546069 0  -0.8819212643483549 0.4713967368259979 0  -0.8700869911087113 0.4928981922297841 0  -0.857728610000272 0.5141027441932218 0  -0.8448535652497071 0.5349976198870972 0  -0.8314696123025453 0.5555702330196022 0  -0.8175848131515836 0.5758081914178454 0  -0.8032075314806448 0.5956993044924335 0  -0.7883464276266062 0.6152315905806269 0  -0.773010453362737 0.6343932841636455 0  -0.7572088465064846 0.6531728429537766 0  -0.7409511253549589 0.6715589548470186 0  -0.7242470829514668 0.6895405447370671 0  -0.7071067811865475 0.7071067811865476 0  -0.6895405447370669 0.7242470829514669 0  -0.6715589548470184 0.740951125354959 0  -0.6531728429537765 0.7572088465064847 0  -0.6343932841636454 0.7730104533627371 0  -0.6152315905806267 0.7883464276266063 0  -0.5956993044924334 0.8032075314806449 0  -0.5758081914178453 0.8175848131515837 0  -0.555570233019602 0.8314696123025455 0  -0.534997619887097 0.8448535652497072 0  -0.5141027441932217 0.8577286100002721 0  -0.492898192229784 0.8700869911087115 0  -0.4713967368259977 0.881921264348355 0  -0.4496113296546067 0.8932243011955152 0  -0.4275550934302819 0.9039892931234434 0  -0.4052413140049897 0.9142097557035307 0  -0.3826834323650897 0.9238795325112867 0  -0.3598950365349882 0.9329927988347388 0  -0.3368898533922199 0.9415440651830208 0  -0.3136817403988914 0.9495281805930367 0  -0.2902846772544622 0.9569403357322089 0  -0.2667127574748983 0.9637760657954398 0  -0.2429801799032639 0.970031253194544 0  -0.2191012401568697 0.9757021300385286 0  -0.1950903220161282 0.9807852804032304 0  -0.1709618887603012 0.9852776423889412 0  -0.1467304744553616 0.989176509964781 0  -0.1224106751992162 0.99247953459871 0  -0.09801714032956065 0.9951847266721969 0  -0.07356456359966733 0.9972904566786902 0  -0.04906767432741801 0.9987954562051724 0  -0.02454122852291214 0.9996988186962042 0  6.123233995736766e-17 1 0  0.02454122852291226 0.9996988186962042 0  0.04906767432741813 0.9987954562051724 0  0.07356456359966745 0.9972904566786902 0  0.09801714032956077 0.9951847266721968 0  0.1224106751992163 0.99247953459871 0  0.1467304744553617 0.989176509964781 0  0.1709618887603014 0.9852776423889412 0  0.1950903220161283 0.9807852804032304 0  0.2191012401568698 0.9757021300385286 0  0.242980179903264 0.970031253194544 0  0.2667127574748984 0.9637760657954398 0  0.2902846772544623 0.9569403357322089 0  0.3136817403988916 0.9495281805930367 0  0.3368898533922201 0.9415440651830208 0  0.3598950365349883 0.9329927988347388 0  0.3826834323650898 0.9238795325112867 0  0.4052413140049899 0.9142097557035307 0  0.4275550934302822 0.9039892931234433 0  0.4496113296546066 0.8932243011955153 0  0.4713967368259978 0.8819212643483549 0  0.4928981922297841 0.8700869911087113 0  0.5141027441932217 0.8577286100002721 0  0.5349976198870973 0.844853565249707 0  0.5555702330196023 0.8314696123025452 0  0.5758081914178453 0.8175848131515837 0  0.5956993044924335 0.8032075314806448 0  0.6152315905806268 0.7883464276266062 0  0.6343932841636455 0.773010453362737 0  0.6531728429537768 0.7572088465064845 0  0.6715589548470183 0.7409511253549591 0  0.6895405447370669 0.7242470829514669 0  0.7071067811865476 0.7071067811865475 0  0.724247082951467 0.6895405447370668 0  0.7409511253549591 0.6715589548470183 0  0.7572088465064846 0.6531728429537768 0  0.773010453362737 0.6343932841636455 0  0.7883464276266063 0.6152315905806268 0  0.8032075314806449 0.5956993044924334 0  0.8175848131515837 0.5758081914178453 0  0.8314696123025452 0.5555702330196022 0  0.8448535652497071 0.5349976198870972 0  0.8577286100002721 0.5141027441932217 0  0.8700869911087115 0.492898192229784 0  0.881921264348355 0.4713967368259976 0  0.8932243011955153 0.4496113296546065 0  0.9039892931234433 0.4275550934302821 0  0.9142097557035307 0.4052413140049899 0  0.9238795325112867 0.3826834323650898 0  0.932992798834739 0.3598950365349881 0  0.9415440651830208 0.3368898533922201 0  0.9495281805930367 0.3136817403988915 0  0.9569403357322088 0.2902846772544623 0  0.9637760657954398 0.2667127574748984 0  0.970031253194544 0.2429801799032639 0  0.9757021300385286 0.2191012401568698 0  0.9807852804032304 0.1950903220161282 0  0.9852776423889412 0.1709618887603012 0  0.989176509964781 0.1467304744553617 0  0.99247953459871 0.1224106751992162 0  0.9951847266721969 0.0980171403295606 0  0.9972904566786902 0.07356456359966743 0  0.9987954562051724 0.04906767432741801 0  0.9996988186962042 0.02454122852291229 0  1 0 0  20 0 0  20 2.5 0  0 2.5 0  -10 2.5 0  10 2.5 0  -10.5 0 0  -5 2.5 0  10.5 0 0  5 2.5 0  -5.75 0 0  5.75 0 0  -15.25 0 0  -15 2.5 0  15.25 0 0  15 2.5 0  -17.625 0 0  -17.5 2.5 0  17.5 2.5 0  17.625 0 0  12.5 2.5 0  12.875 0 0  -12.5 2.5 0  -12.875 0 0  -2.5 2.5 0  2.5 2.5 0  -8.125 0 0  -7.5 2.5 0  8.125 0 0  7.5 2.5 0  -3.375 0 0  3.375 0 0  -18.75 2.5 0  20 1.25 0  16.4375 1.19375 0  -16.25 2.5 0  13.75 2.5 0  -14.0625 0 0  -11.6875 0 0  11.6875 0 0  8.75 2.5 0  -8.75 2.5 0  6.9375 0 0  6.25 2.5 0  -6.25 2.5 0  -9.3125 0 0  -6.9375 0 0  9.3125 0 0  11.25 2.5 0  -11.25 2.5 0  3.75 2.5 0  4.5625 0 0  -4.5625 0 0  -3.75 2.5 0  -13.75 2.5 0  14.0625 0 0  -16.4375 0 0  -20 1.25 0  -18.8125 0 0  18.75 2.5 0  -18.21875 1.2359375 0  18.125 1.278125 0  -15.84375 1.2125 0  -14.375 1.30859375 0  14.65625 1.203125 0  2.1875 0 0  -2.1875 0 0  13.125 1.315625 0  3.125 1.315625 0  -3.125 1.315625 0  -12.28125 1.1890625 0  -5.15625 1.184375 0  11.09375 1.184375 0  5.625 1.325 0  -10.97262068800044 1.220713793599868 0  9.375 1.32734375 0  -6.875 1.32734375 0  -9.67626828410207 1.24449497187193 0  8.061334925608099 1.312208731402025 0  -8.188665074391901 1.312208731402025 0  -1.25 2.5 0  1.25 2.5 0  4.37465139623265 1.41327350462657 0  16.25 2.5 0  6.84375467392576 1.430449641528851 0  1.846573640185365 1.334702047669377 0  -1.846573640185365 1.334702047669377 0  -17.02955351149946 1.396129584721571 0  16.4375 0 0  18.8125 0 0  -13.31314667860176 1.511193493282891 0  -4.122005747945582 0.961844908681634 0  12.12799425205442 0.961844908681634 0  15.54930641305724 1.660405980876393 0  19.0578783583929 0.9559530595267438 0  8.71875 0.6864560603786576 0  -7.53125 0.6864560603786576 0  0.6257799091428734 1.819008129832855 0  -0.6257799091428727 1.819008129832856 0  6.291331569065717 0.7194652423646902 0  -19.11204717950418 0.9044926794710327 0  -4.488713231834613 1.772186102355655 0  11.76128676816539 1.772186102355655 0  -19.28185607205105 1.781856072051052 0  19.30868080343342 1.808680803433421 0  9.90625 0.6371857066656857 0  -6.34375 0.6371857066656857 0  3.796921710049233 0.7617406159238448 0  7.392020585015773 0.7480839107774819 0  -8.910372062800235 0.7929553447587234 0  10.2506781820361 1.451853913138859 0  -5.999321817963904 1.451853913138859 0  4.957643119381741 0.7716423099297361 0  17.29984375 0.8640625 0  15.41193625859067 0.8279888354083842 0  -13.72251704931534 0.7728002662082776 0  16.875 2.5 0  17.12178336313261 1.690954734835967 0  -11.64001625260176 1.74572103154608 0  2.477726735235857 0.7850262278604345 0  13.46875 0 0  13.765625 0.7802887470308788 0  -2.78125 0 0  -2.477726735235857 0.7850262278604346 0  -10.33383379274331 1.744431431923121 0  13.91957519050334 1.653419259628842 0  -15.08147780274903 0.8341506893754731 0  -15.14066649024666 1.671962869821843 0  -8.950686484882164 1.678622661163363 0  -17.55392917606836 0.794731598412167 0  -16.80247533599675 0.6688259240674158 0  -12.94289066923278 0.7766744225472476 0  -9.90625 0 0  -10.31601468672093 0.7730817089126454 0  -18.21875 0 0  -12.28125 0 0  -17.68515668569534 1.768907656575843 0  18.21875 0 0  10.85059123027421 1.880344717307101 0  -5.399408769725794 1.880344717307101 0  -3.738137326223278 1.749164834446819 0  -3.125 2.5 0  12.46235897590077 1.601301060091387 0  -11.09375 0 0  -11.61661448001209 0.7781698802173554 0  -15.625 2.5 0  1.59375 0 0  -1.764022608759088 0.6027229563180789 0  -8.125 2.5 0  8.125 2.5 0  8.713468311289519 1.727645658498745 0  9.375 2.5 0  -7.536531688710481 1.727645658498745 0  -6.875 2.5 0  14.375 2.5 0  17.78381794101733 1.874391370085592 0  18.59891476281433 1.80649740393129 0  -18.58835555265984 1.824268641341969 0  1.806126122135773 0.6510673837470153 0  -16.875 2.5 0  -16.36681393636619 1.755298393865037 0  -16.13072438662071 0.6014017614895231 0  -13.92460230791385 1.83195710210235 0  -14.40198779087891 0.6105385965811564 0  20 0.625 0  19.40625 0 0  14.6875 1.888836596385542 0  14.65625 0 0  12.78248197181444 0.6991460920542635 0  -3.467518028185561 0.6991460920542635 0  13.125 2.5 0  2.491957142932539 1.738660596534321 0  3.125 2.5 0  1.875 2.5 0  3.718973573227002 1.75927763286174 0  -2.491957142932539 1.738660596534321 0  -1.875 2.5 0  -9.375 2.5 0  6.2001972846108 1.772767401802766 0  5.625 2.5 0  5.027483518098582 1.760895488350309 0  5.625981449127788 0.6566963631252629 0  -12.30101114679273 1.859484693920165 0  9.742489932362783 1.884363450023167 0  -6.507510067637216 1.884363450023166 0  1.13492303295015 1.283502262067074
[...]
<PointData  Scalars="f_17852654"> 
<DataArray  type="Float64"  Name="f_17852654"  format="ascii">1.0049224701002832e+00  1.0705243225810157e+00  -9.5619784161371825e-03  8.7063550873015434e-03  -1.3100273521789446e-02  -2.1230080574684278e-02  3.5728331149308058e-03  7.1275369688825873e-03  -3.3488381400636172e-03  -1.5785838812664851e-03  -4.7878639432314678e-02  -1.4431415057436009e-02  6.0900100655676501e-03  -3.1857315688499678e-02  -9.4937208127583422e-03  -1.7139533899561681e-02  4.7538757456337122e-03  -1.0015518781861731e-02  -1.7693594727157806e-02  2.4839419265037153e-02  1.7888876436180691e-03  4.7759876159941799e-03  -1.1845155831955816e-02  -8.1300051910424345e-03  2.4331386313230331e-02  4.9925094681979630e-03  2.6439193954281664e-04  -8.8566874433249673e-04  -1.2807348666611823e-02  -1.9218899421342323e-02  -3.0884020700625760e-02  1.0508141709624724e-02  1.1016704310763232e-02  -3.1718374190798530e-02  -1.8314696862157340e-02  3.9598523078405029e-03  4.7509945888875504e-03  6.3958252115193322e-04  3.6928038395712307e-02  -1.2247819136215912e-02  4.2317966267952176e-03  -1.9016410834534342e-02  -3.0520759526616459e-05  1.8331243912228942e-02  -2.1084557716851866e-02  -1.7049083880313762e-02  4.9342978540968127e-02  1.1430381973919823e-02  -1.7100976431408274e-02  -3.0810779617589521e-02  -3.9102970534848061e-03  1.3517886938389359e-02  2.0918505948977805e-03  -3.1313350630278957e-03  -4.4448805230536403e-03  -8.4056466543898992e-03  -1.1290438758886469e-02  -9.5692346009423213e-03  1.8546926384271620e-02  1.7419729321343783e-02  1.7687034324729897e-02  6.3309990432694092e-03  1.2195964816657582e-02  1.6395822946609316e-02  -9.8250571629199149e-04  1.8821871607581270e-02  2.0030741159495158e-02  -5.0743138166948623e-03  -4.2732718366399547e-03  1.2321726913073604e-02  -1.7705884613830797e-02  -1.6167399809769022e-02  -2.3647718254114644e-02  -3.6998430078051571e-02  -1.2822073125314293e-02  4.1231970488236486e-03  2.7256424924189991e-03  -5.4307354572502705e-03  4.3311976245690269e-02  -1.0167396432505048e-02  -9.7636900387043733e-03  -9.2882557745027714e-04  -8.1168764254262032e-03  -1.4718928068371525e-02  -4.2494115632915833e-03  1.8315497857772606e-02  1.8495689420916879e-03  3.1955528528732166e-02  1.5120358858309181e-02  2.1953220776911277e-02  2.2663683272034860e-02  3.5846886714675508e-02  -7.5415331180634856e-04  -1.1787228705534016e-03  -2.6537086419454337e-02  -6.3656612670219045e-03  -2.6967381261308886e-02  -1.6700656461010866e-02  -6.5135289996171855e-04  -2.0611179249750708e-03  2.3865237066452941e-03  -1.5431977700932881e-02  -1.6150656214770694e-02  1.0253556230380203e-02  -4.2044035344241948e-03  3.4868337162276483e-02  3.6624145899680645e-03  6.4348245561403460e-03  1.7383805859648705e-02  9.3626537091331726e-03  7.7445512162534046e-03  -9.8867440751669779e-03  -1.8788138594384950e-02  8.0949615374635610e-03  1.0527260498387900e-02  -4.1292933967886280e-03  1.6757032052248790e-02  2.5848516853682606e-02  -8.1877589629707238e-03  1.4768980296078541e-02  2.5481599270124382e-02  3.3423385079889158e-02  -1.0479259742746500e-04  -1.2200943087762624e-02  -1.2174994401470537e-02  7.8738571900275698e-03  -1.9249066285836062e-02  7.6274775945869375e-03  -2.6634595471285265e-02  -8.7514846355799306e-04  -1.2286324027935647e-03  2.2620140187280819e+00  1.4259014647078139e+00  1.0279392130124687e+00  1.0274261232112996e+00  1.0034608299949199e+00  1.0772076825474568e+00  9.6448117410474732e-01  1.0449161636033477e+00  9.4064596608066475e-01  9.0856645406416281e-01  8.8672950738055478e-01  9.7419933273343340e-01  1.0367014935860726e+00  8.9599623316388211e-01  9.9881356482623729e-01  9.7263637051384777e-01  1.0110677383488487e+00  9.8198687510376093e-01  1.0649385245328835e+00  1.0127663827180355e+00  1.0198562530040447e+00  9.6427777623178412e-01  1.0315527476426569e+00  9.6128818046443587e-01  9.7983232971846190e-01  1.0231847665199938e+00  1.0373146077824651e+00  7.5811527228425557e-01  1.0342072573904360e+00  9.1051122116301564e-01  1.2164297438218399e+00  9.4887869329359165e-01  2.8535467138655563e-01  1.0192818648409874e+00  1.0093522448427155e+00  9.3931275285401650e-01  1.1581127635972555e+00  8.3622967232498757e-01  9.2602965836900730e-01  1.0799211744645134e+00  9.9077528748023791e-01  9.8481451697587397e-01  1.1041144791672144e+00  1.0968067943440702e+00  1.1189173594152115e+00  8.4703726328491147e-01  9.7009517271775447e-01  1.0420288885097744e+00  9.3781729070268327e-01  9.5281577921190730e-01  7.2147069736602665e-01  1.0596362203953873e+00  1.0581890206604452e+00  9.6840826084265763e-01  1.0115237526668970e+00  8.5877057948377700e-01  9.7393847953237234e-01  9.2602977483653726e-01  1.0311023566840978e+00  1.0099400541711232e+00  9.3348245884989378e-01  1.0033430581439633e+00  9.3129171777854280e-01  8.9525084497727414e-01  6.8221319572442951e-01  6.1953034629746262e-01  9.9127804137208608e-01  1.0189693991134787e+00  9.8484043766451956e-01  1.0656485221182368e+00  8.8509724377062049e-01  1.0215012986785803e+00  1.1254334447521317e+00  9.5832411079538538e-01  8.2833891444756358e-01  1.0506645873249401e+00  1.0570300750326129e+00  1.0987595239905756e+00  9.3211513463173179e-01  9.7237502186479119e-01  9.8100996992212142e-01  1.0470432102377096e+00  9.6729111208321139e-01  9.1980438445354795e-01  1.3104942620457529e+00  1.2589685370408890e+00  9.5864932627027277e-01  9.3949142878835623e-01  1.2149981322475771e+00  1.0232390328462906e+00  8.4621678824219826e-01  1.2204166965361474e+00  1.0095950064623074e+00  9.9566466271327159e-01  1.0602076101251918e+00  9.9594496956966827e-01  2.1128163318879918e+00  1.9525577326281403e+00  1.0021760837296396e+00  1.0005860132999971e+00  1.0641133679690349e+00  8.9383337010207475e-01  9.5061106860754452e-01  6.2739931856924702e-01  1.0308753894938860e+00  9.3864346834429224e-01  1.0196032897034235e+00  1.0081479400824083e+00  9.6575491772796540e-01  9.0969379808935769e-01  1.0460456601365216e+00  1.0415219109104246e+00  1.0348596404415644e+00  1.1108159937696187e+00  9.4920668656752927e-01  9.5957676951392612e-01  9.2029810595381689e-01  1.1134307948505753e+00  9.0540470092539926e-01  9.7554551703234449e-01  1.0809491840584704e+00  7.0213684565412171e-01  9.5555192095261021e-01  9.5852583110099332e-01  1.0124194172015555e+00  1.0491275020795003e+00  1.0516776355698381e+00  9.0793836237267245e-01  9.2602389883353231e-01  1.0638487727104404e+00  9.9311552321317564e-01  9.8248625505885079e-01  9.6169014041356926e-01  1.0821418495642319e+00  8.9403609069637813e-01  9.4392121895559822e-01  8.5399543244448517e-01  8.6526502797839833e-01  1.1181206509915269e+00  1.0939191027106152e+00  9.9930390368009858e-01  9.3681621868349285e-01  7.6139185909735074e-01  1.1497118496084546e+00  9.5940532484371011e-01  2.8341027170955796e-01  7.3671783616051856e-01  1.0059183281411330e+00  8.8104470074355956e-01  1.1080048771588926e+00  8.9757703728639482e-01  1.0746376844425094e+00  9.9182518481161408e-01  9.8352269728808184e-01  9.4070017632318470e-01  9.6707672178313253e-01  1.0490249060575696e+00  7.0849568027710608e-01  9.1964141097989482e-01  8.9152863022059037e-01  1.0849395914843425e+00  9.9526484210523491e-01  9.4773698704671039e-01  1.4638255610810740e+00  1.6227998535612778e+00  9.6401547439449464e-01  1.1455246248747470e+00  1.0282774852564964e+00  1.0245521148995131e+00  9.7171711392389437e-01  1.1736989322027118e+00  9.7865156497747663e-01  1.0393616017001031e+00  1.0375039658926806e+00  1.0505532054003002e+00  9.8227887580641637e-01  1.0553093506204174e+00  1.0635730150029754e+00  9.4684286649245042e-01  9.1573831149508167e-01  9.1400506545631588e-01  1.0355811775731467e+00  1.1385692431016257e+00  9.9042542026786662e-01  1.3591329355690163e+00  1.3557687236258997e+00  1.0014317749655253e+00  8.8730286081291077e-01  1.0961342092916622e+00  8.5670425386499371e-01  1.0891983017196307e+00  1.1347761163489969e+00  8.3555640052772406e-01  1.1505089947018392e+00  9.9533381174554747e-01  9.5654554564170846e-01  1.1093858627203204e+00  1.4930504124677098e+00  1.4332305505324308e+00  1.0244784798781175e+00  9.6200435568604448e-01  1.0549309034736842e+00  1.0719537669962942e+00  1.0240532326451202e+00  1.2339871436779852e+00  1.0718729481813185e+00  1.0631500977243182e+00  1.0333976873902653e+00  1.0718944392416554e+00  9.5069798444934162e-01  1.0642966975035184e+00  9.9980455766582821e-01  9.8659606859029669e-01  2.1012123199768973e+00  9.7252161907190615e-01  1.0704244591821990e+00  9.9615819662691696e-01  9.6988369797110729e-01  9.1018132737141588e-01  1.0802517196640673e+00  1.0820959772550016e+00  1.0499875615018175e+00  9.9303408348278066e-01  9.6923360731531583e-01  4.5144349853464488e-01  1.0080342964959854e+00  1.0461195324748802e+00  1.0630760493053935e+00  1.0114320192945925e+00  1.1306686670070480e+00  1.0801922972284581e+00  1.0547895499038522e+00  1.0236419653355544e+00  1.0335647884086496e+00  1.0214569028041558e+00  1.0215085625348777e+00  1.1696086380469410e+00  9.3167727865022665e-01  9.8369684825706172e-01  9.7122876468460517e-01  4.5423056713968418e-01  1.1350236223920400e+00  8.8150268249517438e-01  9.1203610940682955e-01  1.3091072584919887e+00  8.9108290678168300e-01  1.1550740450693582e+00  8.0746721167085567e-01  1.1651404261860132e+00  8.3620280513688805e-01  9.9992049282978035e-01  8.5502406612627246e-01  9.4317595544446242e-01  8.8700869306325991e-01  9.6984434557914778e-01  8.4994432169481071e-01  1.0713212117564448e+00  8.7403665560016075e-01  1.1424625564684812e+00  1.0082164520630708e+00  1.0925144769928847e+00  1.2216747460671467e+00  1.1697550505409811e+00  8.7875463505023821e-01  8.9873047284289542e-01  1.1316380309134302e+00  1.1032530948299752e+00  1.0513339117858296e+00  9.3385223750378765e-01  1.0683104208902545e+00  9.8192896452526313e-01  9.7702301882210463e-01  1.1366939663103708e+00  1.0089541490613101e+00  9.1970222295276050e-01  1.0773300110306072e+00  9.1923451179861060e-01  8.7296976592745990e-01  1.0920296443463489e+00  9.8750261334377443e-01  8.7719555062344556e-01  9.8728879821796278e-01  9.2444848764089993e-01  9.8057125808658863e-01  1.0320781281436797e+00  1.0261332356363451e+00  9.8018837608542653e-01  8.5635256859532360e-01  9.2647991464535617e-01  1.2209896540525191e+00  9.5729281829232149e-01  9.7655240287208245e-01  1.0135620561721903e+00  9.6795467823640358e-01  9.4597587353655888e-01  1.0578099049613039e+00  9.2920102940524896e-01  8.4335159012596861e-01  6.5603991411839679e-01  1.1153939739247380e+00  8.8255862904812388e-01  1.1093895594098879e+00  1.1491314538470443e+00  1.2396903007924136e+00  1.0729116547030324e+00  1.0281045037200409e+00  9.2321318906544814e-01  7.8290578029158964e-01  1.0380346526407680e+00  9.6882808222270345e-01  1.0555773963542541e+00  1.0263624026299416e+00  1.0093869142956955e+00  6.6851062504647829e-01  1.1057343589252915e+00  9.8944737692962925e-01  1.0413123537245905e+00  9.3825904612208266e-01  1.0327144122438234e+00  1.1665367195319065e+00  1.0947666306285901e+00  9.2674463705763144e-01  6.1219570545351210e-01  1.6941993034444047e+00  1.6886935805790311e+00  1.5056341756546305e+00  9.7676478503253394e-01  9.9302897437942028e-01  1.5437582307370059e+00  9.0265852361094645e-01  1.0421679753980311e+00  1.0603235593615545e+00  2.0759961051084943e+00  1.8408129635674175e+00  1.0553655355242328e+00  1.0457215143904628e+00  1.0939137407989605e+00  9.9163327110523192e-01  1.0815008163373909e+00  8.7703086555241794e-01  1.1333237974670081e+00  9.5878780157824450e-01  9.5187377029764464e-01  1.0044127159882392e+00  8.9890044085655008e-01  9.2500990479258405e-01  1.0847658412664514e+00  9.5845539936431867e-01  1.0020035771921210e+00  9.8703440907554174e-01  9.6969560336887906e-01  9.8330639744329007e-01  8.6751240770818272e-01  9.9999938658711862e-01  1.0518208161476568e+00  9.7251353715527822e-01  1.1037771494550683e+00  8.5875407515914903e-01  1.0045866509161936e+00  1.0428227448001381e+00  9.2892718827996079e-01  8.1761412037091730e-01  1.0893281515179412e+00  1.0727342543462823e+00  9.7054191299060977e-01  8.8319565625090979e-01  1.0210910375431388e+00  1.1114242797394542e+00  1.0028999974229407e+00  1.1617490653949096e+00  1.0144779831702964e+00  9.9673733761846128e-01  9.1903325525916291e-01  9.8790562581455066e-01  9.3271804890496901e-01  9.8206966419920361e-01  7.9179005607138497e-01  1.2224430004810443e+00  1.0635059626929004e+00  8.7786018159673285e-01  1.0138579886673302e+00  1.0169294345145623e+00  9.8436923323160530e-01  1.0816460350028110e+00  1.0681619918531213e+00  1.0416402308948560e+00  9.6491643906752134e-01  9.9722709850479818e-01  1.0387539493345568e+00  1.0679586601827260e+00  1.0452247333103200e+00  1.0010059049976765e+00  1.0444648839605024e+00  1.7977063647611775e+00  9.3065578316513697e-01  3.2414534310904314e-01  9.6174596854747985e-01  9.4053463542304527e-01  9.2918375709616863e-01  1.2787225456033582e+00  9.1449717909347483e-01  1.0438751323179658e+00  1.0320290508357925e+00  9.4031424209286574e-01  1.0543999983924643e+00  9.1227880404292605e-01  9.1648390949094216e-01  1.0608353329498637e+00  1.0671770462383887e+00  1.0017470543447771e+00  9.8479389908350512e-01  1.0379746944600130e+00  9.2680483433142791e-01  1.0755809270255576e+00  8.5059837042854480e-01  9.8087210303488637e-01  1.1033694630939863e+00  1.0348337392833484e+00  1.0250279028658071e+00  9.5548354651449097e-01  9.2414386496927159e-01  9.2224803350862938e-01  7.0872669299544444e-01  9.5289289889788698e-01  1.0249684021027488e+00  9.1701032499483737e-01  1.0199021426821817e+00  1.0209968318434013e+00  9.6462448614226104e-01  9.0064287810970289e-01  9.6205724166637696e-01  1.0205066729289414e+00  1.0792599312579838e+00  9.4022733307298678e-01  1.1188171415507384e+00  1.0384452032341722e+00  9.7263814288322858e-01  1.0191227239476062e+00  7.4170797709515501e-01  9.5036073892589734e-01  1.0785685277275321e+00  9.2042302490554551e-01  9.5415045494918116e-01  9.5399077387182551e-01  1.0661350886452969e+00  1.1550259706533015e+00  9.0054169928177341e-01  7.7851220856036485e-01  1.0451102534752621e+00  1.0197597382372932e+00  8.6283171277366988e-01  2.6087423248328406e-01  9.9101921151249772e-01  1.0009859288133873e+00  1.0333482342606475e+00  9.7728715240455588e-01  9.6131186832918547e-01  9.2669062358987753e-01  9.2519411662691031e-01  9.9589414284906896e-01  1.0574712276787335e+00  9.0269829149443914e-01  9.4614109050815864e-01  1.0647529119327719e+00  1.0152798756478583e+00  1.1027894521807979e+00  9.7442935380067730e-01  9.8782374109526860e-01  9.4493751504034496e-01  9.8555798219923829e-01  1.0015728761533382e+00  9.2411087851638030e-01  1.0774889825016767e+00  1.0509569595697792e+00  1.0916432865327812e+00  1.4262124964647418e+00  9.8998794485619745e-01  1.1631903640715193e+00  1.1616562565806792e+00  8.4312647638504357e-01  1.6578799158322093e+00  8.3539428516649705e-01  1.1224480846306897e+00  1.1115594543615988e+00  1.0274403510505878e+00  9.6110128802118611e-01  1.0156037187339995e+00  8.4959836220873852e-01  8.7924093779832746e-01  1.0222690827182490e+00  1.0621668085222045e+00  9.9282582962152788e-01  9.8029090048136225e-01  1.0416697428733608e+00  9.8670288905650583e-01  9.7683334247437892e-01  1.5952863364041119e+00  1.0073740045183830e+00  8.6407320176220503e-01  1.0856730247570783e+00  9.6909118333928768e-01  1.0615244504213242e+00  1.0972564052991081e+00  1.0020939259199930e+00  9.2271757601945437e-01  1.0333958563183328e+00  9.2295336300064368e-01  1.1467205878836615e+00  9.2366448090473230e-01  6.3806298515673843e-01  9.6687197126162217e-01  9.5530913666997086e-01  8.9276489106481904e-01  9.4830527074204185e-01  1.8300581180042574e+00  1.0675851671305490e+00  9.7247869276949928e-01  9.0400690340009182e-01  1.0470994026997391e+00  1.0867913651597827e+00  1.0588793590017482e+00  8.9662861479960598e-01  1.2328588020652913e+00  9.2186268606101873e-01  9.0656329799947133e-01  9.8763095536356005e-01  1.0202910530643543e+00  8.7536181107942568e-01  8.5661402448893087e-01  1.0189916530075811e+00  1.0486282993512184e+00  1.0421779421153334e+00  9.4365131850478623e-01  9.8110570555737697e-01  9.5876292631564308e-01  9.6626116381161986e-01  1.0317606019229986e+00  9.9159161841292176e-01  8.2942063840619162e-01  9.5121948732229455e-01  9.0192604881986083e-01  1.0973685499508379e+00  7.4969571806752144e-01  1.9918427826664384e+00  1.4029521061820407e+00  9.4976017337262197e-01  9.6115055586546894e-01  9.2848256240395277e-01  7.8939585819036961e-01  1.0117884685809946e+00  1.0855788419212484e+00  1.0624177468241611e+00  1.0762134043346017e+00  9.5207744778327752e-01  9.8445183959776761e-01  9.2235988629608245e-01  2.0267935331054310e+00  1.0915483093531351e+00  1.0292282747626618e+00  1.0542692870688548e+00  9.7002812148102457e-01  9.5876714675581665e-01  1.0478153412368882e+00  9.6410154647770563e-01  8.3349063060151685e-01  1.5717769792951937e+00  1.0156555253012809e+00  9.9674075176403154e-01  1.1398900388528470e+00  1.1232501345379806e+00  1.1772734129218902e+00  1.0165289488991760e+00  8.9265587532665247e-01  1.1415117382893480e+00  1.1391209994325795e+00  1.0717449151749505e+00  9.7387831656918178e-01  1.2507214198017171e+00  1.1479364488892905e+00  1.0077346590645140e+00  1.0559838869471883e+00  1.0389174726966126e+00  8.2827417341915044e-01  1.1821337133978940e+00  9.9884739896497643e-01  1.0142612075232389e+00  1.1066088098908569e+00  9.5482138088399704e-01  9.4672989857443468e-01  9.7348140702461983e-01  1.0092055972857943e+00  9.9228340801042003e-01  8.5284639328122958e-01  9.9553478414639329e-01  9.4077441332652734e-01  1.0559465366613621e+00  1.0297238980123726e+00  4.4984377117254798e-01  4.0626367013768044e-01  9.2003303813486703e-01  1.0524644946751009e+00  8.9685951962430932e-01  1.1209027854258262e+00  1.1052253521858830e+00  1.0011361169364450e+00  1.8219329394751047e+00  1.0449264045625504e+00  1.1058295996088490e+00  1.0474028588631943e+00  1.0124294520334007e+00  1.0581999636021118e+00  9.5066844342397894e-01  8.8347790012758631e-01  1.0573829252857680e+00  9.2716761242808687e-01  1.0137887880559255e+00  1.0454822128168872e+00  1.0621408678892570e+00  9.5523420082863508e-01  1.0548805359075908e+00  9.9446209433247024e-01  1.0175472827118337e+00  1.7297474678061651e+00  8.5350870711435545e-01  8.7758433147837478e-01  1.0473666613211150e+00  1.0201046074330868e+00  1.0337857257664920e+00  1.1842547770313891e+00  1.0296154056660869e+00  9.8782753648760779e-01  1.0560246680760164e+00  9.5850262610677095e-01  7.4044683578577009e-01  9.4902440541382682e-01  8.5911514658050547e-01  7.6583830504959349e-01  1.0020461623356753e+00  9.7894952887117592e-01  1.0058115247564456e+00  1.0461136400744349e+00  1.0141347439216108e+00  1.6511045029156708e+00  1.1060602722859867e+00  1.0347953848810678e+00  1.1660742953445873e+00  1.0246777619332101e+00  8.8912677908955917e-01  9.8473858374556200e-01  9.7364781470199835e-01  1.0896289791366269e+00  1.3495871722126975e+00  1.2415290041329559e+00  1.2765041093354681e+00  9.9164782359798609e-01  1.0606782236909267e+00  1.3983467527465852e+00  1.0273004800833883e+00  1.0209775106906951e+00  1.0666914049267142e+00  9.4562378821116366e-01  1.0112696840816251e+00  8.3613336423903439e-01  9.5071617560781807e-01  9.9401090170412565e-01  1.0657908861697307e+00  1.0921180157619339e+00  8.8663882694878393e-01  1.0698587300792879e+00  1.0098815821751939e+00  1.0496834864153659e+00  8.6942020203794956e-01  1.6191879195756824e+00  1.8144908949716361e+00  1.4747185224285837e+00  9.9821060286570162e-01  9.6046776625822183e-01  9.5252125098217677e-01  1.0949232636626651e+00  9.9495755942018194e-01  9.2627870417300884e-01  8.8750736703836242e-01  7.0590775995284527e-01  9.7877571715287270e-01  9.5468965877988010e-01  1.0533474974109482e+00  1.0051123168683718e+00  9.1365651732484376e-01  1.1495244184951634e+00  1.1433507412999662e+00  1.0477001964110413e+00  1.1070953929051763e+00  1.0066923503411453e+00  4.7180583819175970e-01  1.0683555135794476e+00  1.1617447