<?xml version="1.0"?>
<VTKFile type="UnstructuredGrid"  version="0.1"  >
<UnstructuredGrid>
<Piece  NumberOfPoints="4073" NumberOfCells="7430">
<Points>
<DataArray  type="Float64"  NumberOfComponents="3"  format="ascii">-20 2.5 0  -20 0 0  -1 0 0  -0.9996988186962042 0.02454122852291233 0  -0.9987954562051724 0.04906767432741797 0  -0.9972904566786902 0.07356456359966773 0  -0.9951847266721968 0.09801714032956083 0  -0.99247953459871 0.1224106751992163 0  -0.989176509964781 0.1467304744553618 0  -0.9852776423889412 0.1709618887603012 0  -0.9807852804032304 0.1950903220161286 0  -0.9757021300385285 0.21910124015687 0  -0.970031253194544 0.2429801799032641 0  -0.9637760657954398 0.2667127574748985 0  -0.9569403357322088 0.2902846772544624 0  -0.9495281805930367 0.3136817403988914 0  -0.9415440651830207 0.3368898533922203 0  -0.9329927988347388 0.3598950365349883 0  -0.9238795325112867 0.3826834323650899 0  -0.9142097557035307 0.4052413140049899 0  -0.9039892931234433 0.427555093430282 0  -0.8932243011955152 0.4496113296546069 0  -0.8819212643483549 0.4713967368259979 0  -0.8700869911087113 0.4928981922297841 0  -0.857728610000272 0.5141027441932218 0  -0.8448535652497071 0.5349976198870972 0  -0.8314696123025453 0.5555702330196022 0  -0.8175848131515836 0.5758081914178454 0  -0.8032075314806448 0.5956993044924335 0  -0.7883464276266062 0.6152315905806269 0  -0.773010453362737 0.6343932841636455 0  -0.7572088465064846 0.6531728429537766 0  -0.7409511253549589 0.6715589548470186 0  -0.7242470829514668 0.6895405447370671 0  -0.7071067811865475 0.7071067811865476 0  -0.6895405447370669 0.7242470829514669 0  -0.6715589548470184 0.740951125354959 0  -0.6531728429537765 0.7572088465064847 0  -0.6343932841636454 0.7730104533627371 0  -0.6152315905806267 0.7883464276266063 0  -0.5956993044924334 0.8032075314806449 0  -0.5758081914178453 0.8175848131515837 0  -0.555570233019602 0.8314696123025455 0  -0.534997619887097 0.8448535652497072 0  -0.5141027441932217 0.8577286100002721 0  -0.492898192229784 0.8700869911087115 0  -0.4713967368259977 0.881921264348355 0  -0.4496113296546067 0.8932243011955152 0  -0.4275550934302819 0.9039892931234434 0  -0.4052413140049897 0.9142097557035307 0  -0.3826834323650897 0.9238795325112867 0  -0.3598950365349882 0.9329927988347388 0  -0.3368898533922199 0.9415440651830208 0  -0.3136817403988914 0.9495281805930367 0  -0.2902846772544622 0.9569403357322089 0  -0.2667127574748983 0.9637760657954398 0  -0.2429801799032639 0.970031253194544 0  -0.2191012401568697 0.9757021300385286 0  -0.1950903220161282 0.9807852804032304 0  -0.1709618887603012 0.9852776423889412 0  -0.1467304744553616 0.989176509964781 0  -0.1224106751992162 0.99247953459871 0  -0.09801714032956065 0.9951847266721969 0  -0.07356456359966733 0.9972904566786902 0  -0.04906767432741801 0.9987954562051724 0  -0.02454122852291214 0.9996988186962042 0  6.123233995736766e-17 1 0  0.02454122852291226 0.9996988186962042 0  0.04906767432741813 0.9987954562051724 0  0.07356456359966745 0.9972904566786902 0  0.09801714032956077 0.9951847266721968 0  0.1224106751992163 0.99247953459871 0  0.1467304744553617 0.989176509964781 0  0.1709618887603014 0.9852776423889412 0  0.1950903220161283 0.9807852804032304 0  0.2191012401568698 0.9757021300385286 0  0.242980179903264 0.970031253194544 0  0.2667127574748984 0.9637760657954398 0  0.2902846772544623 0.9569403357322089 0  0.3136817403988916 0.9495281805930367 0  0.3368898533922201 0.9415440651830208 0  0.3598950365349883 0.9329927988347388 0  0.3826834323650898 0.9238795325112867 0  0.4052413140049899 0.9142097557035307 0  0.4275550934302822 0.9039892931234433 0  0.4496113296546066 0.8932243011955153 0  0.4713967368259978 0.8819212643483549 0  0.4928981922297841 0.8700869911087113 0  0.5141027441932217 0.8577286100002721 0  0.5349976198870973 0.844853565249707 0  0.5555702330196023 0.8314696123025452 0  0.5758081914178453 0.8175848131515837 0  0.5956993044924335 0.8032075314806448 0  0.6152315905806268 0.7883464276266062 0  0.6343932841636455 0.773010453362737 0  0.6531728429537768 0.7572088465064845 0  0.6715589548470183 0.7409511253549591 0  0.6895405447370669 0.7242470829514669 0  0.7071067811865476 0.7071067811865475 0  0.724247082951467 0.6895405447370668 0  0.7409511253549591 0.6715589548470183 0  0.7572088465064846 0.6531728429537768 0  0.773010453362737 0.6343932841636455 0  0.7883464276266063 0.6152315905806268 0  0.8032075314806449 0.5956993044924334 0  0.8175848131515837 0.5758081914178453 0  0.8314696123025452 0.5555702330196022 0  0.8448535652497071 0.5349976198870972 0  0.8577286100002721 0.5141027441932217 0  0.8700869911087115 0.492898192229784 0  0.881921264348355 0.4713967368259976 0  0.8932243011955153 0.4496113296546065 0  0.9039892931234433 0.4275550934302821 0  0.9142097557035307 0.4052413140049899 0  0.9238795325112867 0.3826834323650898 0  0.932992798834739 0.3598950365349881 0  0.9415440651830208 0.3368898533922201 0  0.9495281805930367 0.3136817403988915 0  0.9569403357322088 0.2902846772544623 0  0.9637760657954398 0.2667127574748984 0  0.970031253194544 0.2429801799032639 0  0.9757021300385286 0.2191012401568698 0  0.9807852804032304 0.1950903220161282 0  0.9852776423889412 0.1709618887603012 0  0.989176509964781 0.1467304744553617 0  0.99247953459871 0.1224106751992162 0  0.9951847266721969 0.0980171403295606 0  0.9972904566786902 0.07356456359966743 0  0.9987954562051724 0.04906767432741801 0  0.9996988186962042 0.02454122852291229 0  1 0 0  20 0 0  20 2.5 0  0 2.5 0  -10 2.5 0  10 2.5 0  -10.5 0 0  -5 2.5 0  10.5 0 0  5 2.5 0  -5.75 0 0  5.75 0 0  -15.25 0 0  -15 2.5 0  15.25 0 0  15 2.5 0  -17.625 0 0  -17.5 2.5 0  17.5 2.5 0  17.625 0 0  12.5 2.5 0  12.875 0 0  -12.5 2.5 0  -12.875 0 0  -2.5 2.5 0  2.5 2.5 0  -8.125 0 0  -7.5 2.5 0  8.125 0 0  7.5 2.5 0  -3.375 0 0  3.375 0 0  -18.75 2.5 0  20 1.25 0  16.4375 1.19375 0  -16.25 2.5 0  13.75 2.5 0  -14.0625 0 0  -11.6875 0 0  11.6875 0 0  8.75 2.5 0  -8.75 2.5 0  6.9375 0 0  6.25 2.5 0  -6.25 2.5 0  -9.3125 0 0  -6.9375 0 0  9.3125 0 0  11.25 2.5 0  -11.25 2.5 0  3.75 2.5 0  4.5625 0 0  -4.5625 0 0  -3.75 2.5 0  -13.75 2.5 0  14.0625 0 0  -16.4375 0 0  -20 1.25 0  -18.8125 0 0  18.75 2.5 0  -18.21875 1.2359375 0  18.125 1.278125 0  -15.84375 1.2125 0  -14.375 1.30859375 0  14.65625 1.203125 0  2.1875 0 0  -2.1875 0 0  13.125 1.315625 0  3.125 1.315625 0  -3.125 1.315625 0  -12.28125 1.1890625 0  -5.15625 1.184375 0  11.09375 1.184375 0  5.625 1.325 0  -10.97262068800044 1.220713793599868 0  9.375 1.32734375 0  -6.875 1.32734375 0  -9.67626828410207 1.24449497187193 0  8.061334925608099 1.312208731402025 0  -8.188665074391901 1.312208731402025 0  -1.25 2.5 0  1.25 2.5 0  4.37465139623265 1.41327350462657 0  16.25 2.5 0  6.84375467392576 1.430449641528851 0  1.846573640185365 1.334702047669377 0  -1.846573640185365 1.334702047669377 0  -17.02955351149946 1.396129584721571 0  16.4375 0 0  18.8125 0 0  -13.31314667860176 1.511193493282891 0  -4.122005747945582 0.961844908681634 0  12.12799425205442 0.961844908681634 0  15.54930641305724 1.660405980876393 0  19.0578783583929 0.9559530595267438 0  8.71875 0.6864560603786576 0  -7.53125 0.6864560603786576 0  0.6257799091428734 1.819008129832855 0  -0.6257799091428727 1.819008129832856 0  6.291331569065717 0.7194652423646902 0  -19.11204717950418 0.9044926794710327 0  -4.488713231834613 1.772186102355655 0  11.76128676816539 1.772186102355655 0  -19.28185607205105 1.781856072051052 0  19.30868080343342 1.808680803433421 0  9.90625 0.6371857066656857 0  -6.34375 0.6371857066656857 0  3.796921710049233 0.7617406159238448 0  7.392020585015773 0.7480839107774819 0  -8.910372062800235 0.7929553447587234 0  10.2506781820361 1.451853913138859 0  -5.999321817963904 1.451853913138859 0  4.957643119381741 0.7716423099297361 0  17.29984375 0.8640625 0  15.41193625859067 0.8279888354083842 0  -13.72251704931534 0.7728002662082776 0  16.875 2.5 0  17.12178336313261 1.690954734835967 0  -11.64001625260176 1.74572103154608 0  2.477726735235857 0.7850262278604345 0  13.46875 0 0  13.765625 0.7802887470308788 0  -2.78125 0 0  -2.477726735235857 0.7850262278604346 0  -10.33383379274331 1.744431431923121 0  13.91957519050334 1.653419259628842 0  -15.08147780274903 0.8341506893754731 0  -15.14066649024666 1.671962869821843 0  -8.950686484882164 1.678622661163363 0  -17.55392917606836 0.794731598412167 0  -16.80247533599675 0.6688259240674158 0  -12.94289066923278 0.7766744225472476 0  -9.90625 0 0  -10.31601468672093 0.7730817089126454 0  -18.21875 0 0  -12.28125 0 0  -17.68515668569534 1.768907656575843 0  18.21875 0 0  10.85059123027421 1.880344717307101 0  -5.399408769725794 1.880344717307101 0  -3.738137326223278 1.749164834446819 0  -3.125 2.5 0  12.46235897590077 1.601301060091387 0  -11.09375 0 0  -11.61661448001209 0.7781698802173554 0  -15.625 2.5 0  1.59375 0 0  -1.764022608759088 0.6027229563180789 0  -8.125 2.5 0  8.125 2.5 0  8.713468311289519 1.727645658498745 0  9.375 2.5 0  -7.536531688710481 1.727645658498745 0  -6.875 2.5 0  14.375 2.5 0  17.78381794101733 1.874391370085592 0  18.59891476281433 1.80649740393129 0  -18.58835555265984 1.824268641341969 0  1.806126122135773 0.6510673837470153 0  -16.875 2.5 0  -16.36681393636619 1.755298393865037 0  -16.13072438662071 0.6014017614895231 0  -13.92460230791385 1.83195710210235 0  -14.40198779087891 0.6105385965811564 0  20 0.625 0  19.40625 0 0  14.6875 1.888836596385542 0  14.65625 0 0  12.78248197181444 0.6991460920542635 0  -3.467518028185561 0.6991460920542635 0  13.125 2.5 0  2.491957142932539 1.738660596534321 0  3.125 2.5 0  1.875 2.5 0  3.718973573227002 1.75927763286174 0  -2.491957142932539 1.738660596534321 0  -1.875 2.5 0  -9.375 2.5 0  6.2001972846108 1.772767401802766 0  5.625 2.5 0  5.027483518098582 1.760895488350309 0  5.625981449127788 0.6566963631252629 0  -12.30101114679273 1.859484693920165 0  9.742489932362783 1.884363450023167 0  -6.507510067637216 1.884363450023166 0  1.13492303295015 1.283502262067074
[...]
<PointData  Scalars="f_17852669"> 
<DataArray  type="Float64"  Name="f_17852669"  format="ascii">-9.7467603255007064e-03  -6.6826650924936393e-02  -1.8984725083447701e-02  -1.9336758210391661e-02  -1.0219564964573132e-02  -3.4311518408469292e-02  -4.3180297619176050e-02  -2.3197751428094299e-02  7.3950317683861531e-03  -1.6546935405377754e-02  2.3631557080554512e-02  -5.1688086599966397e-02  -5.1093505350338644e-02  -1.8660731174819110e-02  -4.4113526333162470e-02  -2.6451745699870820e-02  -2.4152370558880157e-02  -2.7592945600107274e-02  -1.4101604170987877e-02  2.9726837834222551e-02  4.3021039475808320e-02  1.2834819049407439e-02  7.1015572616401712e-04  -3.9460689996328256e-02  -1.7922186612978040e-02  3.8905213176291622e-03  1.9355961580652926e-02  2.6401080966518546e-02  -7.1552605089491954e-03  -2.8494135547009840e-02  -6.3117169906080142e-02  6.5979102391272668e-03  1.0049757916688303e-02  1.9468307865127016e-02  -1.3142687992855116e-02  -1.0254300241312650e-02  -2.0338588321964043e-02  -2.8431807516324892e-02  -1.5716752244879062e-02  -8.4315276207413449e-03  -1.1973422679607284e-03  2.5484517224060393e-02  3.4819995885420382e-02  2.2095954232650129e-02  -2.6728680534829498e-02  -1.5402408087344692e-02  -1.4995643608443524e-02  1.6922456195971276e-02  -6.5375421271724491e-03  -2.5219821202454536e-02  -4.8259856440577292e-04  -4.0993727904256472e-03  6.6923710423513923e-03  -9.3989144286364210e-03  -2.3726444763088423e-03  5.5723156357952381e-03  -1.2649772689481036e-03  -4.4390067911150525e-03  -2.6876450895084538e-03  -4.8695755505644683e-03  4.5347684063283189e-03  1.2825379491601714e-02  -5.0751286007625612e-03  3.9331848612839587e-04  8.9079227263924154e-03  1.0739639688315192e-03  -1.5005756556084084e-03  -4.5785838600104564e-04  -8.0772692908584950e-03  1.3070462969049660e-02  1.5634235361088353e-02  -7.5691409253651537e-03  8.0462745227122840e-03  1.0871548064486949e-02  -6.3376097644875567e-03  -5.5896408881537579e-03  -6.4020854776022781e-03  -1.9342546317398894e-02  2.0497858535641240e-02  2.0374145877540321e-02  2.7776968340590187e-02  2.0008126335230490e-02  -1.5390151836332181e-03  2.3213828040862063e-03  -9.4793142709841370e-03  -1.6022223927589833e-02  -2.9358574224810372e-03  -3.7239586716526017e-02  -2.7149231974647726e-02  -3.1609134807545437e-02  -2.2630382061612671e-02  -2.4772948848810178e-02  1.6812585426193967e-02  1.2459011381668932e-02  4.1265188162276166e-02  5.9797502742303726e-03  9.0904204277657535e-03  1.0942662462897525e-02  1.7529549759352375e-02  2.9619612203018893e-02  3.0939552062024507e-03  2.0575119194454284e-03  -3.9695617754591048e-03  9.5818980728741045e-03  1.8249917501835153e-03  -3.3329259180542303e-02  -1.5821003322026728e-02  -2.0151152631358231e-03  -3.2823505921046074e-03  -3.3827349047612677e-03  -2.8017573631990388e-02  -1.9240261273055621e-02  -2.1652797139398330e-03  -9.0747415242004113e-03  -9.8903411925226493e-03  -3.7574595246225119e-02  3.0416291793989715e-03  -2.2830030842074737e-02  -4.8040629530873000e-02  -4.2821743259917423e-02  -4.4861067532986978e-02  2.2183902947792090e-02  3.1444208338427072e-02  3.2393727114712639e-02  -4.6144010101008852e-03  1.6498700720590946e-02  -2.8510596349805323e-02  -4.3125129100201477e-02  -2.3704299513563752e-02  2.6273076044948190e-03  5.0688715907167212e-03  -3.8351988912721041e-02  -1.0908817196287025e-01  -4.5364892239343244e-02  -3.0479457087555131e-02  -8.9101708202883628e-02  3.2915183281037506e-02  2.6612593690396716e-02  -3.1963632531474190e-02  2.7806177898204318e-02  4.1477371361336196e-02  9.6491551816993131e-03  3.0357400248034540e-02  2.1587919209787861e-02  -5.5038867132248696e-02  1.3778834702584586e-02  -5.7226912400454098e-02  -2.2821000526459041e-02  -3.4509177691925699e-02  -7.2053870003994575e-02  1.7322870196380090e-02  2.0820035615294065e-03  3.1632088920345976e-02  -2.4120489258290956e-02  -8.8032322541772887e-02  1.0995071158106100e-02  5.8793753732073857e-02  1.0099792255188514e-02  -1.5760402894053324e-02  -4.4628232169403155e-02  6.8320214278752650e-02  3.0236520263094837e-02  4.0243489679660079e-02  9.4715237567710830e-02  4.1691794076193563e-02  -1.4185304265119450e-02  -1.4508701100703422e-02  -3.2498094862940682e-02  3.6932673170425825e-02  -2.8043773903213662e-03  4.4986580739313525e-02  2.0893455285748375e-02  1.6129891060369370e-03  3.0874491212705316e-02  -2.0487206976981701e-02  4.5359358287407336e-02  2.4543939744718521e-04  6.5551630645116132e-03  -2.7676451236787320e-02  3.4335474399277061e-02  3.2299360819244671e-02  2.5527474076305637e-02  -1.6824530052880204e-02  -4.6237430055446407e-03  -1.9698533129449344e-02  -4.3923231103860413e-02  8.2677174294470621e-02  6.5834285372457835e-02  -9.0604293186216378e-03  -4.8507298388028898e-02  -1.6314142856986104e-02  3.0779490573350974e-02  6.8504185777750554e-02  -1.4008024015801945e-01  -1.3776560515566231e-02  3.1006109660800744e-02  -2.0713209204094505e-02  1.4125572933052111e-02  -8.4474299113373771e-02  1.3155555937490718e-01  -9.6698877041463613e-02  -8.8467749886384228e-02  -4.4407345992271884e-02  4.5799677252171198e-02  -3.7400374609624219e-02  -5.6818103719675210e-02  1.4979271639570005e-01  -6.8086735381778021e-02  -3.9629908457947012e-02  5.9175001543069719e-02  -2.8636004235223838e-03  -1.9282186470516141e-03  6.1449004490674732e-02  -5.1749126488301773e-02  -6.5724071587526744e-02  -2.7416161572475301e-01  4.1212105941842264e-01  -6.1898315970651818e-02  5.3526877509189628e-02  6.1461263174702567e-03  4.4629377552901648e-03  1.0760091043092675e-01  -6.9224943054834554e-05  9.2263868349884662e-02  -2.0879628812431542e-01  -5.7198111468328601e-02  3.6619728776199047e-02  -2.4780778299803005e-01  1.9272928778664469e-01  -2.9372824040734390e-03  5.6183397952916041e-02  -3.4361259921063751e-02  -9.0303087163772111e-02  -4.5402807026171857e-04  -1.0288537684456162e-01  3.3216477395856606e-02  5.5888000088130801e-02  -1.0190576414470558e-01  1.4484675210161146e-01  -8.4080956137344620e-02  -1.3476823085223560e-01  -2.1674992260650033e-02  6.2216767574016551e-03  -7.9630825627552485e-02  -1.9598852681102903e-02  9.8820159615901224e-02  -3.0978652989105807e-02  -4.7073462578244626e-03  -2.7318589885622024e-02  -2.4765975590195360e-01  -3.1928266511985964e-02  6.0539092007699628e-02  9.8861445165219969e-02  1.1590697840274700e-01  -2.5665170780232689e-02  2.1658552999206060e-01  -2.9075864524179821e-02  -1.1399688824449843e-02  9.3059210190938407e-02  -9.2215593586271419e-02  -1.2737325254496154e-01  -4.5983085395914759e-02  1.1867021854380903e-02  6.3599838830129870e-03  -6.1576812964337181e-02  1.6928178399062872e-02  -5.4091860736330599e-02  6.5170825173875596e-02  -1.3592880299073450e-02  7.0816900277952011e-02  4.3260779544478734e-03  -1.2513854744975664e-02  -9.4469594335653051e-02  -2.4589760399115430e-02  -7.0253554129925996e-02  -5.8796099088043230e-02  -6.5136735551935374e-02  3.1940524760592259e-01  5.7727515292370003e-02  -2.3237326058849770e-03  1.2904824093678927e-01  -3.9572499208004985e-02  -1.6498334237800152e-01  1.2065254921258300e-02  3.7433016333027730e-02  6.4288154008390164e-02  -3.4254885067417563e-02  -3.6844262484436757e-02  -2.8938315509946166e-01  -4.6415932367024799e-02  -2.7146410172346693e-03  7.9662425704857237e-02  6.2201990236331071e-02  -1.8336580368329310e-02  -1.1690113480009666e-02  1.4732860293417308e-02  -1.3826474583036324e-01  -4.1239416880918693e-02  -1.2531429503886052e-01  2.7863266253087549e-02  6.7939023824625633e-02  -1.0439867840508230e-01  -3.5432393284064674e-02  2.5522643004741382e-02  3.1484557601210800e-02  8.4930908479492320e-02  1.9838670505828545e-02  1.5492628693913020e-02  -8.1048469181558332e-03  -9.0669195359659900e-03  -1.1858061487794343e-02  -2.2067651685953909e-02  9.0791810300888592e-02  -9.8472206972533907e-02  1.9684305699200413e-01  -5.3945359450579089e-01  5.6983263854508570e-01  1.2806771010275236e-01  4.5978649197264965e-02  -3.6614045761441533e-02  -7.9259853956405363e-02  -5.8270602195235173e-02  -7.5231412743192005e-02  -3.8719603493555584e-02  9.1403682020534862e-03  1.1269863325638779e-01  3.7114840669378993e-02  -1.2605696735412893e-02  1.8138473395100110e-01  -9.4409595178865185e-02  6.2829755776017820e-02  -3.8166430561641942e-02  3.9967771564049827e-02  5.1380578701994500e-02  9.2546832400152435e-02  1.1472616248875979e-02  3.0810625088021942e-02  -4.8734018784197301e-02  4.7227267480604539e-02  8.2183756784089054e-03  5.2195043451341447e-02  1.9781045259512936e-02  -2.5362682771692256e-02  -2.1679464349386796e-02  -6.8879005423539794e-02  1.5937956964141201e-02  -1.3492972711169681e-02  1.4698414228655405e-02  3.1871260527537811e-03  1.5372873247389809e-02  9.3557459862019035e-03  1.2498100893132960e-02  -7.0558871944063128e-02  -3.0022518447459470e-02  1.0343242633979413e-02  -5.1988321590778146e-02  -7.2616248101774319e-02  1.6522384135258576e-02  2.1630504385167927e-02  2.9039994524685097e-03  -1.3809830725214664e-01  -1.1892096305585397e-02  1.4846099687473177e-02  2.9877921838198245e-02  4.5011550517482672e-02  1.0229075789803116e-01  -3.0503581484351968e-03  -6.7550557627332725e-02  8.0759885518777649e-02  1.0899705634782872e-01  -4.7453636096054614e-03  -1.9055063050842459e-02  1.9343134070150477e-02  -2.2700260650221151e-02  1.3024823708754367e-03  -3.8460443623976499e-02  3.2327763380544376e-02  -2.5908579488864884e-02  -8.7299573040088799e-02  1.5557310273905299e-02  -8.0879687566144300e-03  1.0485547230227822e-02  4.3722406002621360e-02  7.1785456507583806e-02  3.9984416953459431e-02  -2.5861457488330474e-02  2.0652385178592528e-02  -7.9172887759080823e-02  -1.6434788384770967e-02  5.8274024047685058e-02  -1.3341235737687298e-02  -1.0411129911544270e-02  -4.2274733168109889e-02  1.0220266000165623e-01  -7.5502797608762828e-02  -2.6008292666260816e-02  3.9809084678798227e-02  -3.6783583848969695e-02  9.7527403064453594e-02  -1.8017656138324276e-01  -2.4132249445293602e-02  1.2237886821349299e-01  3.6642491482658094e-03  -1.9985318641199758e-02  5.8334806372204312e-02  2.8711413902965350e-02  3.0316148619538841e-02  1.1554880743791919e-01  2.2905313288619538e-02  4.9047140794834930e-02  -1.8777451208539073e-03  -6.3817281399005332e-02  8.0301672220633568e-03  -2.6507159381004404e-02  -8.1729471902056172e-04  -6.2334986585232018e-02  8.5686600895382423e-02  2.0297432052858104e-02  -4.2590294703907169e-02  5.6340642220438969e-02  -3.3885443360123052e-01  -6.6418651849797103e-02  1.0812915086113167e-01  6.9083923636691108e-02  -3.2841052272101684e-02  -3.6300663077612913e-02  4.3905414353589030e-02  1.9129599113881698e-01  -1.7984564272702844e-01  -1.0447808277869240e-01  -9.0398966202554262e-02  1.2538770624017925e-01  5.9321304433110213e-02  1.2165843174053149e-02  -2.1827387179738730e-01  -1.5290674381457031e-01  1.5617153114114015e-02  5.1756683575021167e-02  -1.3165339193101341e-01  2.1946555640673715e-02  1.0130778559976758e-01  4.9326384233075948e-02  -8.2851219927814034e-03  6.0577380097472093e-02  -5.3006259739309769e-01  -3.6154316244082670e-02  -3.4744452257966785e-01  4.0616210417837928e-01  9.6690141485125738e-02  -7.2389896097988807e-02  -8.1800317881077333e-02  -4.8150267612875218e-03  6.7629344409200792e-02  5.1092227790484901e-01  2.7351428015669310e-01  -1.9679122541230520e-01  -4.4663683842093826e-01  4.8847389503089991e-02  -9.3310299264336205e-02  3.6554886574477280e-01  6.7917577931515927e-02  4.1654786524393438e-02  9.2809161615860156e-02  -3.2680794937272252e-02  6.7330646267531075e-02  -8.7125354181021783e-02  8.0241956717214846e-02  1.8547550807842095e-01  5.0179888194430401e-02  4.4279822854675242e-03  -8.9457213568682289e-02  1.7078526887050437e-02  -9.1778118918961912e-02  3.9825955124655803e-02  -3.9380676345332488e-02  1.1930936973894000e-01  -1.1195015313804985e-01  -6.2210701733626472e-02  7.2345324372105363e-02  -3.0723352252483897e-02  1.2477154535006859e-02  4.6211808099608877e-02  -1.6447253989305292e-02  -7.6934520805345859e-03  -4.7342314227302928e-03  -5.9862649184426200e-02  -1.0569345667180045e-02  -1.3729493740205306e-02  -1.0817368668590452e-01  -3.3879426705320854e-02  8.9852078817041020e-02  4.4727392155369618e-02  -8.3904329191612545e-02  -2.9011262341828211e-02  8.9547250479116505e-02  7.5284308950786831e-03  -3.3241454099208902e-02  1.0767077226882238e-01  -2.3433317897552022e-01  -1.2144276862175047e-02  -6.1446695566095513e-02  -1.2639979971340598e-01  1.1046659343968583e-01  -4.9242249070270708e-02  -1.4039783682409412e-01  1.1850509230439309e-01  -1.6255567972439825e-02  1.4265454939209932e-01  -1.5403535938226281e-02  -6.7986089912861508e-02  7.5283587894564394e-02  3.1218479520142389e-01  4.0326989608601670e-02  -1.9691978304677539e-02  4.5383242510615360e-02  -9.1008717510740703e-02  -4.2245038151950513e-02  2.1828458820829327e-02  -1.7364546224408220e-01  -1.2375454639067074e-01  -1.9498319401256455e-02  -7.9883475056632472e-02  1.6669009755902392e-01  3.0907451719673243e-03  9.1882183466160727e-02  4.5645989415031098e-02  2.6545280613848649e-01  2.2780933789166544e-02  -5.9111333613019290e-02  3.9678926709900884e-02  1.9769248191513922e-01  -4.4789784617612582e-01  -6.5070976063792661e-03  -9.9400157163302291e-02  2.4047942885270134e-02  1.0006680734471297e-02  -1.0315684370944370e-01  -1.8917952892976111e-02  5.4579658382152278e-02  1.0125825955172740e-01  -5.8914361123921330e-02  4.7937370332727471e-02  1.5718337147216152e-01  1.2582250435503636e-01  4.2407077918369066e-03  -1.2350279400393042e-01  3.8666295654551763e-02  1.5793605060679913e-01  1.0276377606093057e-01  6.9166983448271838e-02  -4.8797022891169124e-03  1.6142333077033413e-02  1.3332214352661034e-01  -2.6704201457835380e-01  4.5411898236632678e-02  -1.9713324294959259e-02  -6.9040889717004228e-02  -9.7964919839316600e-02  1.3447790296750026e-01  -4.4088726330721667e-02  1.8181527676252676e-01  -2.5921588535022977e-01  -1.7440879451772036e-02  -5.6226786922791934e-02  -1.4072516637692470e-02  -1.6175536691655573e-01  4.0334134220217199e-02  3.7294623760325885e-02  -5.8138708499765754e-02  7.1840267045243600e-02  -6.2327231297981706e-02  7.5703664988918853e-02  -4.1121993006030373e-02  -5.1393755947929783e-02  -4.0669394972174200e-02  -7.7492425964178963e-02  -6.9025885699858333e-02  -7.2475832197870516e-02  -2.4160207051760901e-02  -1.1081384722970440e-01  -5.0005488557850059e-02  -4.5498575313327350e-02  -2.4965317484723112e-01  -4.9960233915006584e-02  -3.6904240610518670e-03  1.2343927696352128e-02  -2.8956208606862577e-01  5.9342311491842803e-03  -1.5354336572283236e-01  -6.8963157637471253e-02  1.2882737915224634e-02  -3.8422665703609325e-02  4.8539864692905919e-03  1.9596677139493021e-02  -7.5407834406034324e-02  -5.1632328707641728e-02  -9.5599913082663468e-02  -1.0149268843936339e-02  -2.5153840375052930e-02  -7.2385209109986817e-02  6.6591614017339137e-02  3.7287671318832323e-02  -9.9945026176972290e-03  -5.9079622189378109e-02  1.8291483302164510e-01  -5.9927191735580698e-01  -5.1797950304275031e-01  5.7321586545890209e-02  5.1127739698133015e-02  -1.8111397197722651e-01  5.3742758002777669e-02  3.2017593893112657e-02  3.2618458452502155e-03  2.8119036181639825e-02  -4.4892454316957729e-02  3.4481352556086031e-02  3.0372360069213705e-02  -9.4653911344117020e-02  -4.1446107865243428e-02  5.5217849825687754e-02  4.4424414454258584e-02  -8.2515950020101939e-02  -1.0268489410317327e-01  9.7474485202027977e-02  -5.8659402686970466e-02  -1.4780622500760635e-01  4.9099784887749370e-01  3.3507379673430931e-01  1.1880307872388409e-02  5.6326549990028910e-04  1.0024717016686756e-01  1.4325436636882587e-02  -3.3270179032930253e-02  -1.1832749794574435e-01  1.3914691920638720e-02  -2.2795673051233956e-01  1.6614368434935456e-01  6.2588871645326985e-03  1.1752068813359981e-02  -3.9067143559303387e-02  -1.5844234502053944e-01  -7.7412520263155015e-03  3.2888822752652105e-02  9.4175372514083019e-02  -3.7263523177621494e-02  -4.4740961905538473e-01  -2.8554147260905358e-02  8.6001050183545841e-02  2.7446865002753035e-03  1.4448070399397717e-01  4.6915702358725379e-02  -4.2517128771376318e-02  -2.7096816737314099e-03  1.3161095115168188e-04  -1.2114981059953712e-01  2.8791803926182828e-03  9.6222621587470303e-02  1.1339573945078721e-01  -9.2419349411324889e-02  4.5622955246922260e-02  -6.1162656732175982e-02  -3.3948954477213744e-02  -1.6203775079632196e-01  -4.8499778285547183e-02  -8.5770907777687380e-02  -2.4855141926791949e-02  -3.2218127919524638e-03  -7.8658315139532600e-02  7.2397998002692573e-02  2.5289729847533332e-02  -1.6770596766768045e-01  1.9831773972846991e-02  3.5983765261227284e-02  6.0235647472880627e-01  -3.1740510795278376e-01  -2.4010140844594866e-01  -9.1850169537147350e-02  -5.1336170555994010e-01  9.8834767747701266e-02  2.8437004839673687e-02  -5.2862927058230667e-02  9.3343696124438574e-02  -1.3600064865991650e-03  4.3585624566240377e-02  -2.2648849822282005e-02  1.1476259434829392e-01  9.6052974821846243e-03  3.3236547192375476e-01  1.4774676181923902e-02  -1.3963811062971444e-02  5.3024056501282016e-02  7.7998627399900313e-03  2.5917460823963772e-02  -6.6677121091502908e-02  3.3114777819956198e-02  -2.5288558472476397e-02  1.7648937851282898e-01  -1.3370157952251082e-02  -2.1955200578758972e-02  -9.4135987599953189e-02  -1.1273087405447619e-02  -3.0085381953355874e-03  4.0577378810599932e-02  7.8040948779175057e-02  7.5536253129681971e-02  1.0260941453764726e-01  5.4004471650507015e-02  -1.1899179915189129e-02  -3.6933291138968094e-02  3.0792167894459658e-02  4.3053781902950061e-02  -2.4222606444291697e-01  -5.9170259652073655e-02  3.3165563408652995e-02  4.9846387129088600e-02  1.2631147765607408e-02  -1.0429127415381928e-01  -4.7438748489237884e-03  5.2223424631339119e-03  2.0826704698774082e-02  -8.3733972806790784e-03  4.3372131265478862e-02  5.3186137270465568e-02  2.0130994473643044e-02  -2.3441143615325254e-02  4.9038342895701054e-02  4.8160210806820293e-02  -3.1433905302643748e-03  2.5492849368720410e-02  -2.1239910856429112e-01  -1.1039180618844777e-01  -1.6289109861621690e-02  -2.3167976569007088e-02  -1.5053849961477407e-02  5.1238083628872746e-03  -7.0303712801525559e-02  -6.4468713635416855e-02  -5.0993113982994387e-02  -5.6106476176257455e-02  2.9185704190630365e-02  2.8799296583377838e-02  9.3845496641588588e-02  5.0792721121970363e-02  1.0501371796015385e-01  1.2741058778540307e-01  -5.6139823341344569e-02  -9.2289688180351354e-02  2.5953483519958478e-02  -5.3358662588148163e-02  -3.4073385536098906e-02  -8.9465179530981237e-02  3.6599944278864753e-02  -8.5130252022041553e-02  1.5299789948860755e-02  1.6401348341605410e-02  -2.9542761624390158e-02  7.3855930480789866e-02  -1.1528110111992851e-01  1.8959286515025520e-01  1.1964163216204018e-01  4.9570277896848952e-02  1.5009074886041703e-02  5.4371076020271102e-02  1.2742877545689216e-01  -2.3454491172532000e-02  1.7577086179808445e-02  -1.0205246122483666e-01  -5.5082460369500555e-02  -7.3249897803247976e-02  8.5347607674909447e-03  -2.8815564141753854e-02  -1.1244039659184370e-01  1.8943989519397030e-02  -1.8637774622761019e-02  -8.8459184905993957e-02  -1.8582009081876478e-02  1.3926927663514391e-01  2.1455551378419278e-02  -5.2689031886790673e-02  -2.0068199179846084e-02  9.5070371606307449e-02  -1.4978555115187059e-01  1.9069837261439673e-01  -1.0697557900059378e-01  -1.0815850774571201e-02  -3.5504295099662894e-02  -2.8062934728168242e-02  -2.2257958451955984e-01  3.7755062107329304e-02  4.6436153271649690e-03  -7.6744630107799403e-02  -9.4288803385464710e-03  -1.8393198729717661e-01  -9.9846996492030549e-02  2.1855083433681522e-02  4.3645245494555479e-02  4.2048448489950971e-02  -1.2538281842078518e-02  1.5107793258665541e-03  4.0933736753969323e-02  -1.0458800029112264e-02  1.2459629333424155e-01  -1.0969199474767873e-02  -3.0824401247978112e-01  5.7113410925880392e-01  3.1074358211382364e-01  3.0887556244154197e-02  -7.9021328615330760e-02  7.2671623388981726e-02  1.4100873541440384e-02  3.3817672269431616e-02  -1.017482632