<?xml version="1.0"?>
<VTKFile type="UnstructuredGrid"  version="0.1"  >
<UnstructuredGrid>
<Piece  NumberOfPoints="2907" NumberOfCells="5077">
<Points>
<DataArray  type="Float64"  NumberOfComponents="3"  format="ascii">-20 2.5 0  -20 0 0  -1 0 0  -0.9996988186962042 0.02454122852291233 0  -0.9987954562051724 0.04906767432741797 0  -0.9972904566786902 0.07356456359966773 0  -0.9951847266721968 0.09801714032956083 0  -0.99247953459871 0.1224106751992163 0  -0.989176509964781 0.1467304744553618 0  -0.9852776423889412 0.1709618887603012 0  -0.9807852804032304 0.1950903220161286 0  -0.9757021300385285 0.21910124015687 0  -0.970031253194544 0.2429801799032641 0  -0.9637760657954398 0.2667127574748985 0  -0.9569403357322088 0.2902846772544624 0  -0.9495281805930367 0.3136817403988914 0  -0.9415440651830207 0.3368898533922203 0  -0.9329927988347388 0.3598950365349883 0  -0.9238795325112867 0.3826834323650899 0  -0.9142097557035307 0.4052413140049899 0  -0.9039892931234433 0.427555093430282 0  -0.8932243011955152 0.4496113296546069 0  -0.8819212643483549 0.4713967368259979 0  -0.8700869911087113 0.4928981922297841 0  -0.857728610000272 0.5141027441932218 0  -0.8448535652497071 0.5349976198870972 0  -0.8314696123025453 0.5555702330196022 0  -0.8175848131515836 0.5758081914178454 0  -0.8032075314806448 0.5956993044924335 0  -0.7883464276266062 0.6152315905806269 0  -0.773010453362737 0.6343932841636455 0  -0.7572088465064846 0.6531728429537766 0  -0.7409511253549589 0.6715589548470186 0  -0.7242470829514668 0.6895405447370671 0  -0.7071067811865475 0.7071067811865476 0  -0.6895405447370669 0.7242470829514669 0  -0.6715589548470184 0.740951125354959 0  -0.6531728429537765 0.7572088465064847 0  -0.6343932841636454 0.7730104533627371 0  -0.6152315905806267 0.7883464276266063 0  -0.5956993044924334 0.8032075314806449 0  -0.5758081914178453 0.8175848131515837 0  -0.555570233019602 0.8314696123025455 0  -0.534997619887097 0.8448535652497072 0  -0.5141027441932217 0.8577286100002721 0  -0.492898192229784 0.8700869911087115 0  -0.4713967368259977 0.881921264348355 0  -0.4496113296546067 0.8932243011955152 0  -0.4275550934302819 0.9039892931234434 0  -0.4052413140049897 0.9142097557035307 0  -0.3826834323650897 0.9238795325112867 0  -0.3598950365349882 0.9329927988347388 0  -0.3368898533922199 0.9415440651830208 0  -0.3136817403988914 0.9495281805930367 0  -0.2902846772544622 0.9569403357322089 0  -0.2667127574748983 0.9637760657954398 0  -0.2429801799032639 0.970031253194544 0  -0.2191012401568697 0.9757021300385286 0  -0.1950903220161282 0.9807852804032304 0  -0.1709618887603012 0.9852776423889412 0  -0.1467304744553616 0.989176509964781 0  -0.1224106751992162 0.99247953459871 0  -0.09801714032956065 0.9951847266721969 0  -0.07356456359966733 0.9972904566786902 0  -0.04906767432741801 0.9987954562051724 0  -0.02454122852291214 0.9996988186962042 0  6.123233995736766e-17 1 0  0.02454122852291226 0.9996988186962042 0  0.04906767432741813 0.9987954562051724 0  0.07356456359966745 0.9972904566786902 0  0.09801714032956077 0.9951847266721968 0  0.1224106751992163 0.99247953459871 0  0.1467304744553617 0.989176509964781 0  0.1709618887603014 0.9852776423889412 0  0.1950903220161283 0.9807852804032304 0  0.2191012401568698 0.9757021300385286 0  0.242980179903264 0.970031253194544 0  0.2667127574748984 0.9637760657954398 0  0.2902846772544623 0.9569403357322089 0  0.3136817403988916 0.9495281805930367 0  0.3368898533922201 0.9415440651830208 0  0.3598950365349883 0.9329927988347388 0  0.3826834323650898 0.9238795325112867 0  0.4052413140049899 0.9142097557035307 0  0.4275550934302822 0.9039892931234433 0  0.4496113296546066 0.8932243011955153 0  0.4713967368259978 0.8819212643483549 0  0.4928981922297841 0.8700869911087113 0  0.5141027441932217 0.8577286100002721 0  0.5349976198870973 0.844853565249707 0  0.5555702330196023 0.8314696123025452 0  0.5758081914178453 0.8175848131515837 0  0.5956993044924335 0.8032075314806448 0  0.6152315905806268 0.7883464276266062 0  0.6343932841636455 0.773010453362737 0  0.6531728429537768 0.7572088465064845 0  0.6715589548470183 0.7409511253549591 0  0.6895405447370669 0.7242470829514669 0  0.7071067811865476 0.7071067811865475 0  0.724247082951467 0.6895405447370668 0  0.7409511253549591 0.6715589548470183 0  0.7572088465064846 0.6531728429537768 0  0.773010453362737 0.6343932841636455 0  0.7883464276266063 0.6152315905806268 0  0.8032075314806449 0.5956993044924334 0  0.8175848131515837 0.5758081914178453 0  0.8314696123025452 0.5555702330196022 0  0.8448535652497071 0.5349976198870972 0  0.8577286100002721 0.5141027441932217 0  0.8700869911087115 0.492898192229784 0  0.881921264348355 0.4713967368259976 0  0.8932243011955153 0.4496113296546065 0  0.9039892931234433 0.4275550934302821 0  0.9142097557035307 0.4052413140049899 0  0.9238795325112867 0.3826834323650898 0  0.932992798834739 0.3598950365349881 0  0.9415440651830208 0.3368898533922201 0  0.9495281805930367 0.3136817403988915 0  0.9569403357322088 0.2902846772544623 0  0.9637760657954398 0.2667127574748984 0  0.970031253194544 0.2429801799032639 0  0.9757021300385286 0.2191012401568698 0  0.9807852804032304 0.1950903220161282 0  0.9852776423889412 0.1709618887603012 0  0.989176509964781 0.1467304744553617 0  0.99247953459871 0.1224106751992162 0  0.9951847266721969 0.0980171403295606 0  0.9972904566786902 0.07356456359966743 0  0.9987954562051724 0.04906767432741801 0  0.9996988186962042 0.02454122852291229 0  1 0 0  20 0 0  20 2.5 0  0 2.5 0  -10 2.5 0  10 2.5 0  -10.5 0 0  -5 2.5 0  10.5 0 0  5 2.5 0  -5.75 0 0  5.75 0 0  -15.25 0 0  -15 2.5 0  15.25 0 0  15 2.5 0  -17.625 0 0  -17.5 2.5 0  17.5 2.5 0  17.625 0 0  12.5 2.5 0  12.875 0 0  -12.5 2.5 0  -12.875 0 0  -2.5 2.5 0  2.5 2.5 0  -8.125 0 0  -7.5 2.5 0  8.125 0 0  7.5 2.5 0  -3.375 0 0  3.375 0 0  -18.75 2.5 0  20 1.25 0  16.4375 1.19375 0  -16.25 2.5 0  13.75 2.5 0  -14.0625 0 0  -11.6875 0 0  11.6875 0 0  8.75 2.5 0  -8.75 2.5 0  6.9375 0 0  6.25 2.5 0  -6.25 2.5 0  -9.3125 0 0  -6.9375 0 0  9.3125 0 0  11.25 2.5 0  -11.25 2.5 0  3.75 2.5 0  4.5625 0 0  -4.5625 0 0  -3.75 2.5 0  -13.75 2.5 0  14.0625 0 0  -16.4375 0 0  -20 1.25 0  -18.8125 0 0  18.75 2.5 0  -18.21875 1.2359375 0  18.125 1.278125 0  -15.84375 1.2125 0  -14.375 1.30859375 0  14.65625 1.203125 0  2.1875 0 0  -2.1875 0 0  13.125 1.315625 0  3.125 1.315625 0  -3.125 1.315625 0  -12.28125 1.1890625 0  -5.15625 1.184375 0  11.09375 1.184375 0  5.625 1.325 0  -10.97262068800044 1.220713793599868 0  9.375 1.32734375 0  -6.875 1.32734375 0  -9.67626828410207 1.24449497187193 0  8.061334925608099 1.312208731402025 0  -8.188665074391901 1.312208731402025 0  -1.25 2.5 0  1.25 2.5 0  4.37465139623265 1.41327350462657 0  16.25 2.5 0  6.84375467392576 1.430449641528851 0  -1.846573640185365 1.334702047669377 0  1.846573640185365 1.334702047669377 0  -17.02955351149946 1.396129584721571 0  16.4375 0 0  18.8125 0 0  -13.31314667860176 1.511193493282891 0  -4.122005747945582 0.961844908681634 0  12.12799425205442 0.961844908681634 0  15.54930641305724 1.660405980876393 0  19.0578783583929 0.9559530595267438 0  8.71875 0.6864560603786576 0  -7.53125 0.6864560603786576 0  -0.6257799091428727 1.819008129832856 0  0.6257799091428734 1.819008129832855 0  6.291331569065717 0.7194652423646902 0  -19.11204717950418 0.9044926794710327 0  -4.488713231834613 1.772186102355655 0  11.76128676816539 1.772186102355655 0  -19.28185607205105 1.781856072051052 0  19.30868080343342 1.808680803433421 0  9.90625 0.6371857066656857 0  -6.34375 0.6371857066656857 0  3.796921710049233 0.7617406159238448 0  7.392020585015773 0.7480839107774819 0  -8.910372062800235 0.7929553447587234 0  10.2506781820361 1.451853913138859 0  -5.999321817963904 1.451853913138859 0  4.957643119381741 0.7716423099297361 0  17.29984375 0.8640625 0  15.41193625859067 0.8279888354083842 0  -13.72251704931534 0.7728002662082776 0  16.875 2.5 0  17.12178336313261 1.690954734835967 0  -11.64001625260176 1.74572103154608 0  2.477726735235857 0.7850262278604345 0  13.46875 0 0  13.765625 0.7802887470308788 0  -2.78125 0 0  -2.477726735235857 0.7850262278604346 0  -10.33383379274331 1.744431431923121 0  13.91957519050334 1.653419259628842 0  -15.08147780274903 0.8341506893754731 0  -15.14066649024666 1.671962869821843 0  -8.950686484882164 1.678622661163363 0  -17.55392917606836 0.794731598412167 0  -16.80247533599675 0.6688259240674158 0  -12.94289066923278 0.7766744225472476 0  -9.90625 0 0  -10.31601468672093 0.7730817089126454 0  -18.21875 0 0  -12.28125 0 0  -17.68515668569534 1.768907656575843 0  18.21875 0 0  10.85059123027421 1.880344717307101 0  -5.399408769725794 1.880344717307101 0  -3.738137326223278 1.749164834446819 0  -3.125 2.5 0  12.46235897590077 1.601301060091387 0  -11.09375 0 0  -11.61661448001209 0.7781698802173554 0  -15.625 2.5 0  -1.764022608759088 0.6027229563180789 0  1.59375 0 0  -8.125 2.5 0  8.125 2.5 0  8.713468311289519 1.727645658498745 0  9.375 2.5 0  -7.536531688710481 1.727645658498745 0  -6.875 2.5 0  14.375 2.5 0  17.78381794101733 1.874391370085592 0  18.59891476281433 1.80649740393129 0  -18.58835555265984 1.824268641341969 0  1.806126122135773 0.6510673837470153 0  -16.875 2.5 0  -16.36681393636619 1.755298393865037 0  -16.13072438662071 0.6014017614895231 0  -13.92460230791385 1.83195710210235 0  -14.40198779087891 0.6105385965811564 0  20 0.625 0  19.40625 0 0  14.6875 1.888836596385542 0  14.65625 0 0  12.78248197181444 0.6991460920542635 0  -3.467518028185561 0.6991460920542635 0  13.125 2.5 0  2.491957142932539 1.738660596534321 0  3.125 2.5 0  1.875 2.5 0  3.718973573227002 1.75927763286174 0  -2.491957142932539 1.738660596534321 0  -1.875 2.5 0  -9.375 2.5 0  6.2001972846108 1.772767401802766 0  5.625 2.5 0  5.027483518098582 1.760895488350309 0  5.625981449127788 0.6566963631252629 0  -12.30101114679273 1.859484693920165 0  9.742489932362783 1.884363450023167 0  -6.507510067637216 1.884363450023166 0  1.13492303295015 1.283502262067074
[...]
<PointData  Scalars="f_10318"> 
<DataArray  type="Float64"  Name="f_10318"  format="ascii">4.8328796091669799e-04  4.8328342777655787e-04  -6.6429256151069146e-07  -3.4373075695049936e-07  -2.5398594562856083e-07  -5.8974088770295807e-07  -4.2349329131947856e-07  -1.6160048496560567e-07  -2.0442678189424252e-07  -2.1932019731035614e-07  2.6374599821017897e-06  -1.7569175780670624e-07  -3.3375054505089874e-07  -2.2520821264725939e-07  -2.6254577978610403e-07  -4.1722048792508464e-07  -7.2002390266175855e-07  -5.9467131606638655e-07  -5.1028126993931468e-07  -3.2784121025461196e-07  -4.1243348860684404e-07  -2.9485796304773777e-07  -5.4516549001908500e-08  -2.8168692471961091e-07  1.6106625029282797e-06  2.2052720333079960e-06  -3.7396065943545927e-07  -7.3891762004931521e-07  2.1641634106187605e-06  2.7732453275940426e-06  2.2064987572878205e-06  7.7038515396221905e-07  2.3130619394345313e-06  1.9030771033005045e-06  2.3135081643173141e-06  4.0706968780072622e-06  1.9083867665164079e-06  1.4474927503346056e-06  2.7948193313726359e-06  4.1672030765044202e-06  4.0135651924208855e-06  2.4721534006967563e-06  3.6565204072474595e-06  5.4123609619012085e-06  4.4555360097561078e-06  4.6015980191469778e-06  1.7107490319750582e-05  3.6524504301269916e-06  3.7659974405389218e-06  4.9885501787624172e-06  5.5884628987310435e-06  5.8590653935986283e-06  3.8144966154236530e-06  4.5947667376933977e-06  7.3737120334212593e-06  5.9179663346962882e-06  8.0439756661560218e-06  7.3159057016969336e-06  6.9371758087250727e-06  8.5885153511000951e-06  6.0946190761680211e-06  5.8448910301423291e-06  5.1571656150237032e-06  8.9894521100107448e-06  6.1118334085191759e-06  9.7385529793924761e-06  7.1914497217631324e-06  6.7219375263391646e-06  4.2381913584234069e-06  6.1633257639638891e-06  5.0999599512170212e-06  6.6292727198834791e-06  6.3033017716851768e-06  6.2884678656522033e-06  6.7557492937237824e-06  4.7611850569386906e-06  7.8808575318767600e-06  6.9062141800146378e-06  2.1367399535188009e-05  5.0441894791257018e-06  6.8113581120837692e-06  4.9974683747965954e-06  4.1041208642008117e-06  5.4754449712850417e-06  5.9869680559443226e-06  5.7060192076528354e-06  5.2725732354076792e-06  4.7432097509541044e-06  3.1917076633736578e-06  4.3337231256424953e-06  4.6445658749669830e-06  4.2093607133750899e-06  3.8386404221806860e-06  6.3360296058068367e-06  2.4603161310755457e-06  3.3181559952357559e-06  2.5886786438121560e-06  2.1368351256505847e-06  3.6257477581543282e-06  3.1148000655753996e-06  2.9431089914441899e-06  2.2934610047382592e-06  2.6845142225411219e-06  2.9618275205397633e-06  2.2552002901666635e-06  -7.9224118765378664e-07  1.0975664873059673e-06  1.3809826933148667e-06  2.1305731680853234e-06  1.1493669430598941e-06  -1.2639630230089100e-06  1.4689281215589734e-07  1.7860255389311471e-07  -1.1027802688550647e-07  -1.2035918329854809e-06  1.3327001194166579e-06  -1.9438846137410368e-07  -9.7079035070102022e-08  -6.1820263254607799e-07  3.1654154650925855e-07  -4.3059237651650347e-07  -2.2322172070177154e-07  -2.3098947878662461e-07  -1.3842266239881931e-07  -1.0005193337126460e-07  -2.6024848028536800e-07  -4.1796848715623670e-07  -5.3929125097067391e-07  -2.2109423319983252e-07  -1.9334643689085399e-07  -1.9005758095358798e-07  4.8328182513138565e-04  4.8328446838735251e-04  4.9971655670127697e-04  4.8328208866901617e-04  4.8328400206911696e-04  4.8328126887716761e-04  4.8368641746848740e-04  4.8328063923449628e-04  4.8362780898211809e-04  4.8262820680079510e-04  4.8262752517910497e-04  4.8328236065045972e-04  4.8328121591868772e-04  4.8328174459813175e-04  4.8328124086668571e-04  4.8328241025170920e-04  4.8328118340272124e-04  4.8328149600544333e-04  4.8328176821095975e-04  4.8328104216235538e-04  4.8328172741714910e-04  4.8328248238141224e-04  4.8328241455809431e-04  4.9430702178199877e-04  4.9157231922810252e-04  4.8325511951735736e-04  4.8329199133560394e-04  4.8325485723403285e-04  4.8329365303872204e-04  4.6752436496527136e-04  4.6743812459667557e-04  4.8328172822517679e-04  4.8328193583502499e-04  4.8328202529284749e-04  4.8328145032744115e-04  4.8328260003537954e-04  4.8328245307122921e-04  4.8328219180273420e-04  4.8328157986597583e-04  4.8328386527675464e-04  4.8328430649840766e-04  4.8314981563681454e-04  4.8334152248959535e-04  4.8331444619981520e-04  4.8327689061653450e-04  4.8314935789284133e-04  4.8327631952774057e-04  4.8328165902044359e-04  4.8328231268649998e-04  4.8519161090080477e-04  4.8006645549065129e-04  4.8007526347493143e-04  4.8538114074720670e-04  4.8328417118993609e-04  4.8328179354851982e-04  4.8328238479888072e-04  4.8328364347108017e-04  4.8328250413570548e-04  4.8328176033998667e-04  4.8328262178511642e-04  4.8328196453683301e-04  4.8328264103580948e-04  4.8328256192566520e-04  4.8328211150598302e-04  3.9861357568516097e-04  3.9824750385927511e-04  4.8328193439683439e-04  4.8812087458937660e-04  4.8776167817161811e-04  4.8328265745553112e-04  4.8331335855652179e-04  4.8328208249698551e-04  4.8343080201361738e-04  4.8328278068733945e-04  4.8328277906597750e-04  4.8331213271945105e-04  4.8328303411091265e-04  4.8328732992406766e-04  4.8328784986954870e-04  4.9533671023774164e-04  4.9513923778188578e-04  4.8456101196865019e-04  4.8328406854772631e-04  4.8333537022293753e-04  5.2409098591050726e-04  5.2365746904354117e-04  4.8328202929482625e-04  4.8328173554954462e-04  4.8328183422909358e-04  4.8328207176626770e-04  4.8168459696590408e-04  4.8328172911964905e-04  4.8328206834974608e-04  4.8328180551545150e-04  4.8327437970020298e-04  4.8324589745041003e-04  8.0020794986531872e-04  8.0046391914593716e-04  4.8310028893916755e-04  4.8328239376103932e-04  4.8567105700303106e-04  4.8328391858367537e-04  4.8328373295882139e-04  4.8328400065861753e-04  4.8328023906631963e-04  4.8308965402962177e-04  4.7865810663216395e-04  4.8324265319015528e-04  4.8327783558190673e-04  4.8328236140794678e-04  4.8344264510136382e-04  4.8235068794296875e-04  4.8328179821636303e-04  4.8328183840458492e-04  4.8328245968388647e-04  4.8328167297125669e-04  4.8328235893872051e-04  4.8328355576171745e-04  4.5919116128226284e-04  4.8328178259261290e-04  4.8328184258918306e-04  4.4649277690902804e-04  4.5954836604144759e-04  4.8328452710539482e-04  4.8328237405842678e-04  4.8328244375823141e-04  4.8328293260185373e-04  4.8328833331408652e-04  4.8328240938564997e-04  4.8328233873443788e-04  4.8328237553785209e-04  4.8327992849209916e-04  4.8328165897715871e-04  4.8328239482258269e-04  4.8328232775499201e-04  4.8328373180415833e-04  4.8328179364245466e-04  4.8328561036664521e-04  4.8410774072552714e-04  4.8985362594999827e-04  4.8550487992196146e-04  4.8328171534965105e-04  4.8328194491657636e-04  4.8328233852110668e-04  4.8328197595542597e-04  3.9606982842082860e-04  2.6938272605996587e-04  4.8328699609524148e-04  4.8328628299462354e-04  4.8329090904046404e-04  4.8328401112893643e-04  4.8332452680064232e-04  4.8330122581189040e-04  4.8328207127970742e-04  4.8328475301747265e-04  4.8328314817575583e-04  4.8328391203451398e-04  4.0826139501129130e-04  4.8328214986577167e-04  4.8328381940710807e-04  4.8328240870368681e-04  4.8328430963856441e-04  4.8328245482672069e-04  4.8328178243643667e-04  4.8328184664247245e-04  4.8328462074308340e-04  4.8328176368266762e-04  4.8328176880296406e-04  4.7543399110891899e-04  4.8328269249955962e-04  5.1819055876482843e-04  4.8739638875100206e-04  4.9149283087963349e-04  4.8990725430060242e-04  5.1699916733645315e-04  5.1081175499672498e-04  4.8328348797199461e-04  4.8353622838896818e-04  4.8336380241889533e-04  4.8448912223328426e-04  4.8279947399111958e-04  4.8328538097050576e-04  4.8328705994524169e-04  4.8347699184083065e-04  6.2860662549191941e-04  6.3322024319004458e-04  4.8328166810555396e-04  4.8166436878507851e-04  4.8328126512005504e-04  4.8284197391509464e-04  4.8328432630796047e-04  4.6910178288157064e-04  4.8328171962510284e-04  4.8328182413853515e-04  4.8326671600307144e-04  4.8326307477361004e-04  4.8332649000909316e-04  6.1070647913139702e-04  6.1225284320088399e-04  4.8328578259286114e-04  4.8328167361183581e-04  4.7610622004161363e-04  4.8328810705805297e-04  4.8327965861103309e-04  4.8328176590368998e-04  4.8328158530295813e-04  4.8328520721786479e-04  4.8328245779294778e-04  4.8328383226152883e-04  4.8328405706909273e-04  4.8328281321165950e-04  4.8329359169799218e-04  4.8379518734240767e-04  8.7548354644563064e-04  4.8328171595348395e-04  4.8328163677186729e-04  4.8328212353305013e-04  4.8328238758902552e-04  4.8328162255428645e-04  4.8392390213210918e-04  5.0152269022534499e-04  4.9784100128846993e-04  4.8328095863063586e-04  4.8328563830947984e-04  4.8328499680181671e-04  4.8328115375696577e-04  4.8328173223080166e-04  4.8335216369154615e-04  4.8328441081039308e-04  4.8328207173446513e-04  4.8328176368764579e-04  4.8181494694879369e-04  4.8328129393421790e-04  4.8328181622926388e-04  4.8328618153463615e-04  4.8330175683629909e-04  4.8330647048729135e-04  4.8328239595753420e-04  4.8318985298116549e-04  4.8327795405034708e-04  2.6886970906605709e-04  4.8328241925639048e-04  4.8328246874003401e-04  4.8181795083600195e-04  4.8327012337363319e-04  4.8322131888462345e-04  4.7604386605468120e-04  4.8299087261471669e-04  4.8327930454108856e-04  4.8298513207658969e-04  4.8322265010058318e-04  4.8326958969527832e-04  4.8328244395127648e-04  4.8328234278966517e-04  4.4691676737706483e-04  4.8328174670566758e-04  4.9967819101698536e-04  4.8328515569036280e-04  4.9978794581128087e-04  4.8393355744289645e-04  4.8328244494977773e-04  4.8328177886559226e-04  4.8036449848563515e-04  4.8328240082501584e-04  4.8328539731073202e-04  4.8317206947674855e-04  4.8328200002267465e-04  4.8613439701874654e-04  4.8328193010472074e-04  4.8328261446666182e-04  4.8328220650873874e-04  4.8328177833501174e-04  4.8373334953338777e-04  4.8328731460624573e-04  4.8328498416759324e-04  4.8339096693378352e-04  4.8328218970200077e-04  4.8339473934634966e-04  4.8328200282909484e-04  4.8383327359864718e-04  4.8331412190419734e-04  4.8328487166256819e-04  4.8328504595637566e-04  4.8328245559386127e-04  4.8337113434796620e-04  4.8328813236382228e-04  4.8328358251127797e-04  4.8328243694640546e-04  4.8328816126276265e-04  4.8328177130284609e-04  4.7913470884460171e-04  4.8328168674508686e-04  4.8328300624250270e-04  4.8328165855609996e-04  4.8450490752267232e-04  4.6205690335852370e-04  4.8345692791138694e-04  4.8328187732689967e-04  4.8328196135049304e-04  4.8328180270098317e-04  4.8925508833696900e-04  4.8328228782113056e-04  5.5357971756163859e-04  5.5672857794616449e-04  4.8328274503416698e-04  4.8332027933523086e-04  4.8328240406265939e-04  4.8328141565701869e-04  4.8328238210462217e-04  4.8328160670347827e-04  4.8328382389033138e-04  4.8328327626011682e-04  4.8328184025525308e-04  4.1287939289024990e-04  4.8328194154223004e-04  4.9015302670356211e-04  4.9614775250665557e-04  4.8328250823536994e-04  4.8328167874008650e-04  4.8328134791529701e-04  4.8328238635560769e-04  4.8328331595273271e-04  4.3186400402738911e-04  6.9723308625901470e-04  6.9732953538817770e-04  9.4100497183975348e-04  9.4109329223108248e-04  4.8328246547546928e-04  4.8328242464834906e-04  4.8328180851122207e-04  4.8910713172370173e-04  4.8328150489657372e-04  4.8329032216143597e-04  4.8328183292796424e-04  4.8328175640085169e-04  4.8328177545319884e-04  4.8328139899873039e-04  4.8221137889207930e-04  4.8326626237913317e-04  4.8327998666277235e-04  4.8522841099763939e-04  4.8328413082474850e-04  4.8328122980864548e-04  4.8326550766394108e-04  4.8324653543696359e-04  4.8328331855637566e-04  4.8349079209427173e-04  4.8328230176835534e-04  4.8328474742746492e-04  4.8289326769853963e-04  4.8316313683184430e-04  4.8328211563200839e-04  4.8328202003429874e-04  4.8328354295947782e-04  5.1384244582535572e-04  4.8328152138544671e-04  4.8425906179496597e-04  4.8328190689587595e-04  4.8488887576690647e-04  4.8327835198669404e-04  4.8327519107778616e-04  4.8328108544155201e-04  4.8328185741103498e-04  4.8328233422516547e-04  4.8328352439453245e-04  8.0359887723577912e-04  7.9916731844690355e-04  4.8328177184295637e-04  4.8328187066624115e-04  4.8328143441779266e-04  4.8317024867927351e-04  4.8330649660515606e-04  4.8322557742723162e-04  4.8328245575399560e-04  4.8328088925472101e-04  4.8327940132013016e-04  4.8328329444741132e-04  4.8326984840095760e-04  4.8336049440335512e-04  4.8328868295851706e-04  4.6472615369454320e-04  4.8876333149783474e-04  4.8320109734226202e-04  4.8325514723421764e-04  4.8328060353098007e-04  4.8328075562710239e-04  4.8328053750653342e-04  4.8286070017417867e-04  4.8151072421254550e-04  4.7382885352246433e-04  4.8328065694737985e-04  4.8255468331237511e-04  4.8116656165254744e-04  4.8328352556891482e-04  2.5795607350652036e-04  4.8328239730658365e-04  4.8328173805882679e-04  4.7353969715053335e-04  5.4074414040105581e-04  4.8328177650332178e-04  4.8328273950406126e-04  4.8328177729909581e-04  4.8328503087647381e-04  4.8328252628698141e-04  4.8328245340636407e-04  4.8328232441413469e-04  4.8328444559067905e-04  4.8328227194399155e-04  4.8591650253969587e-04  4.8328901629347858e-04  4.8329409084242890e-04  4.8328424383949265e-04  7.8876274357435219e-04  4.8327841657453297e-04  4.8310134291200949e-04  4.8328243477071566e-04  4.8328245540787420e-04  4.8328252245969294e-04  4.8328177229592427e-04  4.8328381054935549e-04  4.8324062409960816e-04  4.4069153980514806e-04  4.3456778172338732e-04  4.8320829380183860e-04  4.8327414038070360e-04  4.8328172159199504e-04  4.8328378863041297e-04  4.8328186337747553e-04  4.8328136273232861e-04  4.7568239753252486e-04  4.6977448718952722e-04  4.8452701057852802e-04  4.8328177689162358e-04  7.9253973269970319e-04  4.9509263486475976e-04  5.2083697286295122e-04  4.8328338331076295e-04  4.8328283008522812e-04  4.8321384330600903e-04  4.1108992995529491e-04  4.8328290566458404e-04  4.8329195736498428e-04  4.8335786321333898e-04  4.8328255444505397e-04  4.8328440286557088e-04  4.8328277693469185e-04  4.8328183910917522e-04  4.8328395595649586e-04  4.8328270300630847e-04  4.8328221087487439e-04  4.8328245503963583e-04  4.8328395694085212e-04  2.4009546503087011e-04  4.8328177485680064e-04  4.8221534667446326e-04  4.8328253944007228e-04  4.7427660540534276e-04  4.8330264345940833e-04  4.8328163983240864e-04  4.8328388081179897e-04  4.8328147700213160e-04  4.8111718176041735e-04  4.8179423734600105e-04  4.8328328601319353e-04  4.8333159288796722e-04  4.8328424158148166e-04  4.8328249770497405e-04  4.8328117841158483e-04  4.8328211464408960e-04  4.8328210879833566e-04  4.9633711344906071e-04  4.8328439749403666e-04  4.8711490150306856e-04  4.8326675075634104e-04  4.8329935498809222e-04  5.1665923421221564e-04  5.9047329129992819e-04  4.7824407796978586e-04  4.9143797199147988e-04  5.0915667743495370e-04  4.8303964403637549e-04  4.8328180199994644e-04  4.8328170766963763e-04  4.8342647941709805e-04  4.8328237592033444e-04  4.8328242585690733e-04  4.8328236059885430e-04  4.8328175418512707e-04  4.8328250486679862e-04  4.8328150816641504e-04  4.8328178369736428e-04  4.8367441723175849e-04  4.8331745816343529e-04  4.8329052913341340e-04  4.8328173651935398e-04  4.8370615104633221e-04  5.2525233490235057e-04  5.9935956645701686e-04  4.8322449976695902e-04  4.8328240945583558e-04  4.8328239574364399e-04  4.8328233471871853e-04  4.8328253750444462e-04  4.8327396652725026e-04  4.8326774874801710e-04  5.0051735424455721e-04  4.8383119115263365e-04  4.8308113111053194e-04  4.8307243525893168e-04  4.8328185481548051e-04  4.0305142525269626e-04  4.8328157353604858e-04  4.8328210731088508e-04  4.8328213463990673e-04  4.8328174524432053e-04  7.1153499029429491e-04  4.8328191756844577e-04  4.8957419963480174e-04  4.8329883317478736e-04  4.8541985960050596e-04  4.7790391465646066e-04  4.8328174270099398e-04  4.8231169732483776e-04  4.8328103998647513e-04  4.8328230031589457e-04  4.8840805220773864e-04  4.8388284389689441e-04  4.8328253052342128e-04  4.8328160707306918e-04  4.8328261906315515e-04  4.8336967699646034e-04  4.8328467073353810e-04  4.8374087072596526e-04  4.8328268564966121e-04  4.8328204109804963e-04  4.8629154169017348e-04  5.0203063689533908e-04  4.8328593191610404e-04  4.8328179629248270e-04  7.0538026049312384e-04  4.8331777400200917e-04  4.8330167672209996e-04  4.8344661416453065e-04  4.8732286823558916e-04  5.6937939282818346e-04  5.5947255222591537e-04  4.5544848175426903e-04  5.4475942170305672e-04  4.8328140436647732e-04  4.8328174307512309e-04  4.8328422688539134e-04  4.8328107764219683e-04  4.8250911225872076e-04  4.8331893943788577e-04  4.8343722383173648e-04  4.8328167719056844e-04  4.8328706977821060e-04  4.8327872746597436e-04  4.8328263848555064e-04  4.8328242328301419e-04  4.8328477596759704e-04  4.8328238325551763e-04  4.7843527189713597e-04  4.8328502818988973e-04  4.8328375861114730e-04  4.8328113295613992e-04  4.8328239537445862e-04  4.8328183479276330e-04  4.8328176399284789e-04  4.6782199463544236e-04  4.7912907491800275e-04  4.8328185627783196e-04  4.8328242247021026e-04  4.8336394254831419e-04  4.8328107239184866e-04  4.8328243710716304e-04  4.8328245818321861e-04  4.8328155511744063e-04  4.8279507260915995e-04  4.8328457553629614e-04  4.8328178048979406e-04  4.8328178221079213e-04  4.8328248575473057e-04  4.8328263438835367e-04  4.8328242659155220e-04  4.8328247647179434e-04  4.8328197163417417e-04  4.8328279085297450e-04  4.8328310432059013e-04  4.8328216136017096e-04  4.8328186080574158e-04  4.8328125459779815e-04  4.8328098376370781e-04  4.8328268840443678e-04  3.5020450848901089e-04  3.3694200943672339e-04  4.8328175653821799e-04  4.8328186780275290e-04  4.8328302530822057e-04  4.8328179710033123e-04  4.8328178826039100e-04  4.8328785805842536e-04  7.6301881800048719e-04  5.0808623355085285e-04  7.5783054173957337e-04  4.8328279100280370e-04  4.8328169285470239e-04  4.8273605487540017e-04  4.8328172530476315e-04  4.8124723001524347e-04  4.8328160610233944e-04  4.8046657954152195e-04  4.8328257210796210e-04  4.8328244177817548e-04  4.8328374527840208e-04  4.8328237180212660e-04  4.8328233673151791e-04  4.7416303745528821e-04  4.6500224094686311e-04  4.8328149737666363e-04  4.8328178540206447e-04  4.8328184315666526e-04  4.8503184021612641e-04  4.8267218349424624e-04  4.8328498891888656e-04  4.8328357462553730e-04  4.8343694109874815e-04  4.8338541894495888e-04  4.8328449827986990e-04  4.8352710526001011e-04  4.8328418433152807e-04  4.8328176623308757e-04  4.8328173434127936e-04  4.8328176800031223e-04  4.8328406346351098e-04  4.8328240355789145e-04  4.8328298146186011e-04  4.8328175687007281e-04  4.8328238905203129e-04  4.8297329750194499e-04  4.8328244102398369e-04  5.0823001701320305e-04  4.8417036656926905e-04  4.8328355184879636e-04  4.8328245250626913e-04  4.8325924064009394e-04  4.8325639806042067e-04  4.8328306884749345e-04  4.8328516180487735e-04  4.8328060791952412e-04  5.8094257371328313e-04  6.3418018907951922e-04  6.3475548345907711e-04  5.8300182559639082e-04  4.8328175851361266e-04  4.8328096086320313e-04  4.8328181757051748e-04  4.8328152774569416e-04  4.8327772739591580e-04  4.8327859729603307e-04  4.7857176495074886e-04  4.8328183567854634e-04  4.8328264765210911e-04  4.8328185721423201e-04  4.8229705464615362e-04  4.8328176539259984e-04  4.8328101447812802e-04  4.8328425489844404e-04  4.8328466943780012e-04  5.3714043920864566e-04  4.8328168158837245e-04  6.5221759205577178e-04  5.6883180129565548e-04  4.8327600411603042e-04  4.8327972963417044e-04  4.8299211443420252e-04  4.8328149990656163e-04  4.8148641224693851e-04  4.8328639447617713e-04  4.5870732430387025e-04  4.8328113614928999e-04  4.8329975413289840e-04  4.8328362154531867e-04  4.8328174300578999e-04  4.8328130562169495e-04  8.6928639327636518e-04  8.1222702119286799e-04  8.5735099401126219e-04  5.2762482070464354e-04  4.8328173426730414e-04  4.8328179540614607e-04  4.8328074823581011e-04  3.2697766857693318e-04  4.8328095273556378e-04  5.3653517844562068e-04  4.8328180990175575e-04  4.8328175755826781e-