<?xml version="1.0"?>
<VTKFile type="UnstructuredGrid"  version="0.1"  >
<UnstructuredGrid>
<Piece  NumberOfPoints="2907" NumberOfCells="5077">
<Points>
<DataArray  type="Float64"  NumberOfComponents="3"  format="ascii">-20 2.5 0  -20 0 0  -1 0 0  -0.9996988186962042 0.02454122852291233 0  -0.9987954562051724 0.04906767432741797 0  -0.9972904566786902 0.07356456359966773 0  -0.9951847266721968 0.09801714032956083 0  -0.99247953459871 0.1224106751992163 0  -0.989176509964781 0.1467304744553618 0  -0.9852776423889412 0.1709618887603012 0  -0.9807852804032304 0.1950903220161286 0  -0.9757021300385285 0.21910124015687 0  -0.970031253194544 0.2429801799032641 0  -0.9637760657954398 0.2667127574748985 0  -0.9569403357322088 0.2902846772544624 0  -0.9495281805930367 0.3136817403988914 0  -0.9415440651830207 0.3368898533922203 0  -0.9329927988347388 0.3598950365349883 0  -0.9238795325112867 0.3826834323650899 0  -0.9142097557035307 0.4052413140049899 0  -0.9039892931234433 0.427555093430282 0  -0.8932243011955152 0.4496113296546069 0  -0.8819212643483549 0.4713967368259979 0  -0.8700869911087113 0.4928981922297841 0  -0.857728610000272 0.5141027441932218 0  -0.8448535652497071 0.5349976198870972 0  -0.8314696123025453 0.5555702330196022 0  -0.8175848131515836 0.5758081914178454 0  -0.8032075314806448 0.5956993044924335 0  -0.7883464276266062 0.6152315905806269 0  -0.773010453362737 0.6343932841636455 0  -0.7572088465064846 0.6531728429537766 0  -0.7409511253549589 0.6715589548470186 0  -0.7242470829514668 0.6895405447370671 0  -0.7071067811865475 0.7071067811865476 0  -0.6895405447370669 0.7242470829514669 0  -0.6715589548470184 0.740951125354959 0  -0.6531728429537765 0.7572088465064847 0  -0.6343932841636454 0.7730104533627371 0  -0.6152315905806267 0.7883464276266063 0  -0.5956993044924334 0.8032075314806449 0  -0.5758081914178453 0.8175848131515837 0  -0.555570233019602 0.8314696123025455 0  -0.534997619887097 0.8448535652497072 0  -0.5141027441932217 0.8577286100002721 0  -0.492898192229784 0.8700869911087115 0  -0.4713967368259977 0.881921264348355 0  -0.4496113296546067 0.8932243011955152 0  -0.4275550934302819 0.9039892931234434 0  -0.4052413140049897 0.9142097557035307 0  -0.3826834323650897 0.9238795325112867 0  -0.3598950365349882 0.9329927988347388 0  -0.3368898533922199 0.9415440651830208 0  -0.3136817403988914 0.9495281805930367 0  -0.2902846772544622 0.9569403357322089 0  -0.2667127574748983 0.9637760657954398 0  -0.2429801799032639 0.970031253194544 0  -0.2191012401568697 0.9757021300385286 0  -0.1950903220161282 0.9807852804032304 0  -0.1709618887603012 0.9852776423889412 0  -0.1467304744553616 0.989176509964781 0  -0.1224106751992162 0.99247953459871 0  -0.09801714032956065 0.9951847266721969 0  -0.07356456359966733 0.9972904566786902 0  -0.04906767432741801 0.9987954562051724 0  -0.02454122852291214 0.9996988186962042 0  6.123233995736766e-17 1 0  0.02454122852291226 0.9996988186962042 0  0.04906767432741813 0.9987954562051724 0  0.07356456359966745 0.9972904566786902 0  0.09801714032956077 0.9951847266721968 0  0.1224106751992163 0.99247953459871 0  0.1467304744553617 0.989176509964781 0  0.1709618887603014 0.9852776423889412 0  0.1950903220161283 0.9807852804032304 0  0.2191012401568698 0.9757021300385286 0  0.242980179903264 0.970031253194544 0  0.2667127574748984 0.9637760657954398 0  0.2902846772544623 0.9569403357322089 0  0.3136817403988916 0.9495281805930367 0  0.3368898533922201 0.9415440651830208 0  0.3598950365349883 0.9329927988347388 0  0.3826834323650898 0.9238795325112867 0  0.4052413140049899 0.9142097557035307 0  0.4275550934302822 0.9039892931234433 0  0.4496113296546066 0.8932243011955153 0  0.4713967368259978 0.8819212643483549 0  0.4928981922297841 0.8700869911087113 0  0.5141027441932217 0.8577286100002721 0  0.5349976198870973 0.844853565249707 0  0.5555702330196023 0.8314696123025452 0  0.5758081914178453 0.8175848131515837 0  0.5956993044924335 0.8032075314806448 0  0.6152315905806268 0.7883464276266062 0  0.6343932841636455 0.773010453362737 0  0.6531728429537768 0.7572088465064845 0  0.6715589548470183 0.7409511253549591 0  0.6895405447370669 0.7242470829514669 0  0.7071067811865476 0.7071067811865475 0  0.724247082951467 0.6895405447370668 0  0.7409511253549591 0.6715589548470183 0  0.7572088465064846 0.6531728429537768 0  0.773010453362737 0.6343932841636455 0  0.7883464276266063 0.6152315905806268 0  0.8032075314806449 0.5956993044924334 0  0.8175848131515837 0.5758081914178453 0  0.8314696123025452 0.5555702330196022 0  0.8448535652497071 0.5349976198870972 0  0.8577286100002721 0.5141027441932217 0  0.8700869911087115 0.492898192229784 0  0.881921264348355 0.4713967368259976 0  0.8932243011955153 0.4496113296546065 0  0.9039892931234433 0.4275550934302821 0  0.9142097557035307 0.4052413140049899 0  0.9238795325112867 0.3826834323650898 0  0.932992798834739 0.3598950365349881 0  0.9415440651830208 0.3368898533922201 0  0.9495281805930367 0.3136817403988915 0  0.9569403357322088 0.2902846772544623 0  0.9637760657954398 0.2667127574748984 0  0.970031253194544 0.2429801799032639 0  0.9757021300385286 0.2191012401568698 0  0.9807852804032304 0.1950903220161282 0  0.9852776423889412 0.1709618887603012 0  0.989176509964781 0.1467304744553617 0  0.99247953459871 0.1224106751992162 0  0.9951847266721969 0.0980171403295606 0  0.9972904566786902 0.07356456359966743 0  0.9987954562051724 0.04906767432741801 0  0.9996988186962042 0.02454122852291229 0  1 0 0  20 0 0  20 2.5 0  0 2.5 0  -10 2.5 0  10 2.5 0  -10.5 0 0  -5 2.5 0  10.5 0 0  5 2.5 0  -5.75 0 0  5.75 0 0  -15.25 0 0  -15 2.5 0  15.25 0 0  15 2.5 0  -17.625 0 0  -17.5 2.5 0  17.5 2.5 0  17.625 0 0  12.5 2.5 0  12.875 0 0  -12.5 2.5 0  -12.875 0 0  -2.5 2.5 0  2.5 2.5 0  -8.125 0 0  -7.5 2.5 0  8.125 0 0  7.5 2.5 0  -3.375 0 0  3.375 0 0  -18.75 2.5 0  20 1.25 0  16.4375 1.19375 0  -16.25 2.5 0  13.75 2.5 0  -14.0625 0 0  -11.6875 0 0  11.6875 0 0  8.75 2.5 0  -8.75 2.5 0  6.9375 0 0  6.25 2.5 0  -6.25 2.5 0  -9.3125 0 0  -6.9375 0 0  9.3125 0 0  11.25 2.5 0  -11.25 2.5 0  3.75 2.5 0  4.5625 0 0  -4.5625 0 0  -3.75 2.5 0  -13.75 2.5 0  14.0625 0 0  -16.4375 0 0  -20 1.25 0  -18.8125 0 0  18.75 2.5 0  -18.21875 1.2359375 0  18.125 1.278125 0  -15.84375 1.2125 0  -14.375 1.30859375 0  14.65625 1.203125 0  2.1875 0 0  -2.1875 0 0  13.125 1.315625 0  3.125 1.315625 0  -3.125 1.315625 0  -12.28125 1.1890625 0  -5.15625 1.184375 0  11.09375 1.184375 0  5.625 1.325 0  -10.97262068800044 1.220713793599868 0  9.375 1.32734375 0  -6.875 1.32734375 0  -9.67626828410207 1.24449497187193 0  8.061334925608099 1.312208731402025 0  -8.188665074391901 1.312208731402025 0  -1.25 2.5 0  1.25 2.5 0  4.37465139623265 1.41327350462657 0  16.25 2.5 0  6.84375467392576 1.430449641528851 0  -1.846573640185365 1.334702047669377 0  1.846573640185365 1.334702047669377 0  -17.02955351149946 1.396129584721571 0  16.4375 0 0  18.8125 0 0  -13.31314667860176 1.511193493282891 0  -4.122005747945582 0.961844908681634 0  12.12799425205442 0.961844908681634 0  15.54930641305724 1.660405980876393 0  19.0578783583929 0.9559530595267438 0  8.71875 0.6864560603786576 0  -7.53125 0.6864560603786576 0  -0.6257799091428727 1.819008129832856 0  0.6257799091428734 1.819008129832855 0  6.291331569065717 0.7194652423646902 0  -19.11204717950418 0.9044926794710327 0  -4.488713231834613 1.772186102355655 0  11.76128676816539 1.772186102355655 0  -19.28185607205105 1.781856072051052 0  19.30868080343342 1.808680803433421 0  9.90625 0.6371857066656857 0  -6.34375 0.6371857066656857 0  3.796921710049233 0.7617406159238448 0  7.392020585015773 0.7480839107774819 0  -8.910372062800235 0.7929553447587234 0  10.2506781820361 1.451853913138859 0  -5.999321817963904 1.451853913138859 0  4.957643119381741 0.7716423099297361 0  17.29984375 0.8640625 0  15.41193625859067 0.8279888354083842 0  -13.72251704931534 0.7728002662082776 0  16.875 2.5 0  17.12178336313261 1.690954734835967 0  -11.64001625260176 1.74572103154608 0  2.477726735235857 0.7850262278604345 0  13.46875 0 0  13.765625 0.7802887470308788 0  -2.78125 0 0  -2.477726735235857 0.7850262278604346 0  -10.33383379274331 1.744431431923121 0  13.91957519050334 1.653419259628842 0  -15.08147780274903 0.8341506893754731 0  -15.14066649024666 1.671962869821843 0  -8.950686484882164 1.678622661163363 0  -17.55392917606836 0.794731598412167 0  -16.80247533599675 0.6688259240674158 0  -12.94289066923278 0.7766744225472476 0  -9.90625 0 0  -10.31601468672093 0.7730817089126454 0  -18.21875 0 0  -12.28125 0 0  -17.68515668569534 1.768907656575843 0  18.21875 0 0  10.85059123027421 1.880344717307101 0  -5.399408769725794 1.880344717307101 0  -3.738137326223278 1.749164834446819 0  -3.125 2.5 0  12.46235897590077 1.601301060091387 0  -11.09375 0 0  -11.61661448001209 0.7781698802173554 0  -15.625 2.5 0  -1.764022608759088 0.6027229563180789 0  1.59375 0 0  -8.125 2.5 0  8.125 2.5 0  8.713468311289519 1.727645658498745 0  9.375 2.5 0  -7.536531688710481 1.727645658498745 0  -6.875 2.5 0  14.375 2.5 0  17.78381794101733 1.874391370085592 0  18.59891476281433 1.80649740393129 0  -18.58835555265984 1.824268641341969 0  1.806126122135773 0.6510673837470153 0  -16.875 2.5 0  -16.36681393636619 1.755298393865037 0  -16.13072438662071 0.6014017614895231 0  -13.92460230791385 1.83195710210235 0  -14.40198779087891 0.6105385965811564 0  20 0.625 0  19.40625 0 0  14.6875 1.888836596385542 0  14.65625 0 0  12.78248197181444 0.6991460920542635 0  -3.467518028185561 0.6991460920542635 0  13.125 2.5 0  2.491957142932539 1.738660596534321 0  3.125 2.5 0  1.875 2.5 0  3.718973573227002 1.75927763286174 0  -2.491957142932539 1.738660596534321 0  -1.875 2.5 0  -9.375 2.5 0  6.2001972846108 1.772767401802766 0  5.625 2.5 0  5.027483518098582 1.760895488350309 0  5.625981449127788 0.6566963631252629 0  -12.30101114679273 1.859484693920165 0  9.742489932362783 1.884363450023167 0  -6.507510067637216 1.884363450023166 0  1.13492303295015 1.283502262067074
[...]
<PointData  Scalars="f_1356977"> 
<DataArray  type="Float64"  Name="f_1356977"  format="ascii">3.0278976793431745e-13  3.4169446287641719e-13  -2.0965317455677601e-04  -1.2117395843926476e-04  -6.9614340873406195e-06  -1.8351330625631071e-05  1.0028282479080423e-04  4.8539089972395437e-05  2.2016754107918914e-04  3.2812186761572873e-04  2.0865690516587354e-03  4.7750216896198826e-04  2.5057851320736083e-04  2.0961129956791440e-04  9.9538044732774540e-05  2.3360299084032625e-04  1.2985303929860599e-04  2.3724487119263681e-04  1.3840794687869761e-04  1.8836816848410767e-04  1.0245755976730499e-04  9.4378991907795466e-05  2.3561510925309594e-04  1.2808428349358038e-04  1.4426669648776708e-04  1.8506250385898348e-04  1.2736998795917522e-04  1.8495617851873008e-04  3.2709380517919728e-04  1.9019557926069631e-04  1.7088346304555270e-04  1.3884592802730061e-04  1.3417188861252334e-04  2.3622539896971765e-04  1.7336566657932288e-04  1.4767287974094923e-04  2.8925715743260597e-04  1.5579001791177918e-04  1.4841859460393728e-04  2.3345895689372981e-04  2.5233076540460807e-04  1.8403531035315922e-04  1.7976923862149833e-04  2.5566420338002117e-04  3.1068132640607983e-04  4.7624786276614657e-04  6.1460353183013230e-03  1.8410153856320981e-04  1.3953180434465943e-04  1.4325097662583414e-04  2.3608247337922314e-04  1.7988600860042013e-04  1.2400442260165095e-04  1.2712770907909290e-04  1.8909076596581827e-04  2.0213886824204758e-04  1.6684555583917736e-04  1.6009221262594997e-04  1.2861183013418513e-04  9.7428295437914275e-05  7.0242605118682304e-05  6.9842133627825181e-05  1.2875074032185139e-04  4.7415942487303221e-05  3.8787010556005282e-05  1.7384258459574575e-05  8.7550098488718487e-06  -2.2228715890770717e-05  -2.5386033551713762e-05  -4.9283000252813845e-05  -5.9575311516577614e-05  -5.8425189978134858e-05  -1.6433843670091066e-04  -8.6808040144278567e-05  -1.0921599239864796e-04  -1.2581027423469180e-04  -1.5354715163239110e-04  5.2761576925056412e-05  -3.5278104273085268e-03  -4.8508663183959868e-04  -2.3131814912350130e-04  -1.3977185086980692e-04  -1.4473768409421143e-04  -1.9689871529644256e-04  -2.6169573276261355e-04  -2.5641635678809926e-04  -2.3513446691529233e-04  -1.6064402036559692e-04  -1.7327754192562981e-04  -2.5823875825508664e-04  -2.6251530254789635e-04  -1.7411493512576440e-04  -1.7310049857411470e-04  -2.1804839801630403e-04  -2.4620830487297955e-04  -1.6646521626941207e-04  -1.5071197842357544e-04  -2.7618695239761204e-04  -2.0796226357649785e-04  -1.7901641446720559e-04  -3.3166500353266741e-04  -2.6087089265966484e-04  -1.3698107937151600e-04  -1.8144493617109324e-04  -1.4631620421548048e-04  -1.3393072733805777e-04  -2.3255973730662083e-04  -2.4769563412816613e-04  -1.6084382825263423e-04  -9.7881072600780714e-05  -2.5591299810435162e-04  -2.3684235323086198e-04  -5.8184426506691349e-04  -2.7758460635969416e-04  -3.6293163824786156e-04  -1.9658660181178793e-03  -4.3546428415258107e-04  -2.8784202559946982e-04  -1.2760727468055268e-04  -1.1074343125362661e-04  -1.9124819825757513e-04  -3.2618687994059945e-04  -1.4645702741516805e-04  -1.7409241895544619e-04  -6.1682820310118061e-05  -5.6662077944846121e-05  2.4190411447966179e-05  -7.9455671226933875e-05  -1.1245022164031357e-04  -3.6072620566807281e-05  2.2739681310916723e-04  1.7166782267639709e-09  1.6832539144377572e-09  3.9929367124053717e-04  4.5923030621237399e-08  -2.7859310226881915e-08  1.0623501484870259e-08  -9.5782282972922802e-05  1.8477504025449637e-09  2.6931898464326978e-05  -1.6997815907215698e-05  -3.7139399115912714e-05  -1.4578133074914249e-12  -3.9065847013331774e-11  3.0178417070142626e-09  -1.0394731952747910e-09  -3.4017180022038147e-13  -2.7338844698519569e-13  -5.0199880759782283e-09  -1.6054325892704532e-09  1.7679958225606223e-09  -7.6240775262097498e-10  -9.5853812804316780e-10  3.1146372226675711e-10  -9.3921665186020836e-03  4.6940400689945323e-03  1.0053502501957778e-06  1.9478826605932274e-06  1.1146024048483161e-06  -3.7437376701792388e-06  1.3187552521717540e-03  -7.9800876980138226e-04  2.5506568008315918e-13  8.5666880410959009e-09  -1.8096035640068407e-08  -3.0809354052124998e-12  1.6918657183004309e-09  -1.4207647570067104e-10  3.4744556619348821e-10  4.7179683512137710e-10  -8.7934774547903575e-07  5.2801467962174480e-07  6.6873143759474615e-07  -4.3535396153671906e-06  -6.8253474232045994e-08  3.0443761205128108e-07  -2.5317860013230033e-06  2.1419239921786551e-07  -3.6126425672743614e-09  6.8269120230821774e-10  1.2234815730328399e-03  -4.1855724687627432e-04  1.5895451897209416e-04  -9.7077159557438673e-04  -9.1949877083928062e-11  1.1563184334940792e-09  1.8570634755253733e-12  -1.1448888962273174e-12  1.7832573815261483e-13  2.5896494492822462e-09  9.2650335561579232e-12  6.2575441539793320e-08  3.8224316863395451e-10  3.9247798986453045e-09  1.2588918710105527e-09  -5.0271700154325659e-03  5.8214591734624876e-03  -1.2363241260330930e-08  -8.0781678483977409e-02  8.1279966711679461e-02  1.8626155006657276e-08  2.4378007752146715e-03  2.4762341509587618e-07  -5.9658116436923599e-04  -3.3859501503370148e-07  7.0112367335693985e-06  -1.0653057943000469e-04  -4.4889244574642617e-06  4.2928398721618249e-05  -3.6901216601856681e-05  -6.2514740628663336e-03  6.2391450500357088e-03  -9.7505605865896121e-03  -2.9578795603209033e-09  1.0412518518732298e-04  3.5949939908156620e-01  -3.5389087493942090e-01  1.9266769566661689e-11  1.0630356414226040e-08  3.1869859223136101e-09  1.1916670229765076e-08  2.0110387928619290e-02  -1.5993533364620282e-08  -1.8731978132334983e-08  6.2954498215049717e-08  1.8181601621482403e-05  -6.4133035541427959e-05  2.4324730658026555e-01  -2.4213904031890790e-01  -5.7031729032903670e-05  6.2627580134383693e-12  4.3930885496267823e-03  -7.5318449885359015e-09  7.7314750115710831e-13  4.6222270316046887e-08  2.7779969203326796e-06  3.4260959976472142e-05  -3.2241016731294099e-02  7.2915404811969430e-05  -1.4959316062647236e-05  1.3131343311564234e-06  1.1307560147746317e-04  -4.0676427271520718e-03  4.3559135681217969e-08  -1.2925816789488464e-08  8.7704209361468319e-09  -8.2384374432565781e-10  -3.1245436092390297e-10  -3.1608538638753322e-09  -1.9563818789384813e-01  2.5217484859538340e-09  3.4023576520899681e-09  2.0999353816752741e-03  1.9455207722338369e-01  -6.4288892006890111e-07  -1.3053323550453354e-09  1.4562070297856923e-09  7.9926001178697041e-10  -8.6187540260969263e-06  1.4023276944547778e-11  4.9961255696412452e-11  1.6494170440950059e-08  -9.3448156682238943e-08  -1.5244845746743125e-06  -2.6683024684024277e-12  2.1199442314979344e-09  -4.6874071137117977e-13  -8.3263938376501143e-09  1.2629762096561974e-07  3.5272547538350006e-04  1.7500672981005015e-02  -3.3361238586238091e-03  -2.1240322728593432e-08  -1.0809455259231545e-08  -6.6409647390742321e-08  -2.2483849811333136e-11  3.3611418725596703e-01  8.0539418640218394e-05  2.0512619719793746e-06  -1.3108894364017558e-06  1.1365028823296979e-05  -9.2034406078083910e-08  -4.9161462422789695e-05  4.5598968202199898e-06  4.7111745886071161e-10  2.3042692911353001e-08  4.3756212846144548e-08  2.7716719231943430e-12  -3.3861511065496713e-01  -6.2574134564950121e-13  5.4019439747258645e-11  1.9902931910989351e-10  3.5565377355660039e-09  3.3228900465050228e-09  4.4902805652417492e-09  4.8587154117027008e-09  -1.0285062968254254e-09  -1.0902741244400096e-09  -1.6098675587654892e-08  5.0251523630657491e-02  1.5948010887982236e-09  -1.1174839086216388e-01  1.1422711759023838e-03  3.6896587203888069e-03  -1.8345686054358507e-02  1.1393994761528106e-01  -1.4344452258075600e-02  1.9981017810280102e-07  4.9991468666614079e-05  3.9615026914367964e-05  -1.3205076282420225e-03  -8.3967135449709840e-04  1.4678721356148485e-08  1.5054578885266289e-06  -6.5928772794334692e-05  -5.4590691464909014e-01  5.4154676595081519e-01  7.6707498825809855e-08  5.8216501154467288e-03  8.0232007723039404e-07  7.7201033914397511e-04  -2.7203866188798913e-08  -7.4939935750349601e-02  2.8095033035640529e-09  -1.6696285507307511e-08  -3.3330723012117794e-05  3.7766532964806108e-05  4.8704523288806648e-05  1.7876834231247718e-01  -1.7489231477223363e-01  -8.6034640492074136e-08  -2.5945573426986448e-09  -9.0543168825664530e-04  -1.5237195646011098e-06  -5.0472670625155255e-06  5.7141125290817743e-08  8.8330829177104271e-13  -2.1389230352500819e-10  1.0334189343853463e-11  9.3457502273189479e-13  1.3870422060585830e-12  -1.0803227388929525e-10  -5.1307112810359256e-06  3.8521233014252135e-04  6.4059221910321598e-04  3.2116150362956076e-08  1.8490221674010556e-09  -1.4333674483721224e-09  -1.8104219462699929e-13  1.4651943061309410e-09  -5.2937528306287935e-04  4.6420176131878261e-03  -3.7485087535995242e-03  -3.1909536626392085e-09  -5.7316595727891823e-13  9.2592503862733554e-09  4.0753535974688119e-09  -4.2441255063877146e-09  1.1035472503610869e-05  1.7279313417440560e-10  -3.0833312888234228e-07  -8.1557480910167372e-10  8.4236942632954682e-05  -8.9097608293408986e-09  -3.7178508693846313e-09  1.1878450643131589e-09  -1.1851366620739986e-05  1.6850305192474455e-05  1.0596219173029031e-08  -6.4871916513913356e-05  7.0989035642163235e-06  6.9854560863963995e-05  4.5132676669247015e-11  1.0583178333515421e-11  2.0756759461692742e-04  -2.0351093485752713e-07  1.3702304189060297e-08  5.1841986089606212e-04  3.7530175032824770e-06  -7.5056079758310060e-08  1.3322416543269174e-05  -3.1226276330664179e-07  -2.4519736961467120e-07  4.0191059480453228e-13  1.0556002540613240e-11  2.2798201944198258e-03  8.0298169204476311e-09  -3.0863921336628249e-02  -6.8870841499725345e-09  2.8752938764969694e-02  -1.3733180280916732e-04  1.1212151516100189e-10  4.4709158996952026e-08  -1.0421630348102831e-02  5.0800772420329788e-10  3.6060829429324432e-12  5.7732827368879187e-05  -2.7244418346428935e-08  -2.5588647514850574e-03  3.8771416351338755e-08  2.0281711347907715e-08  8.2749494532340438e-09  5.4193505533425141e-09  -1.5274568537598646e-05  2.8579019088805790e-07  8.1163110469764220e-09  5.0000312824889936e-05  7.2482696094562241e-12  7.3429494632402280e-03  3.2822626546374667e-08  4.0086666383879158e-02  2.8313137762415236e-05  3.1196926697128055e-09  -6.9920739396075055e-05  2.3652160201009163e-05  -6.3000683516784283e-05  4.0278349531560309e-06  -8.9285661193646628e-09  9.5875941489249382e-12  7.4952304386873288e-05  4.9364431549921344e-08  1.0689732866713547e-02  1.6886376887156583e-09  -7.7869335451394388e-09  -1.4985041098905478e-08  -2.6752098366080088e-02  8.4132093373606942e-02  -2.5879583192620777e-03  6.2728936875275565e-08  4.1530190752416988e-08  -7.1360667604191645e-09  2.5451238225452848e-03  6.3065646913265270e-12  4.2658414113473542e-02  -8.2687095495270521e-02  -1.0418479439539409e-06  -1.1905034675105666e-05  -1.6223892909607780e-08  5.9313389690088937e-08  -5.9657268339492435e-09  -4.2280770794449353e-09  8.0298149611968242e-10  1.2083872209479458e-10  9.1374155283501283e-10  -4.7633906258898251e-01  -2.5031396409965480e-08  -1.6366555280619349e-01  2.3057379730493457e-01  5.5695012810361344e-12  1.4859672610253046e-12  1.8472977464782227e-12  1.2779303999756018e-11  -2.1204562128035363e-08  4.9420022195109503e-01  1.5398502946062537e-01  -1.5390603375291462e-01  2.4112205013281535e-01  -2.3854742723234007e-01  7.7649668568035363e-09  1.4150013529468580e-09  -9.3991097281477441e-09  -1.9462103086295393e-03  -1.5323377975508700e-08  -1.7826604397659908e-06  1.4330466296672874e-08  4.0586951150526456e-08  -5.0374898900609399e-09  2.3010154121651179e-07  1.9154781532878501e-03  -9.2926614877389968e-05  1.2423683506513508e-05  6.0488141864105751e-04  8.5462478802679941e-09  -2.7270555395580825e-12  1.4963864452471864e-05  -2.8746052610186348e-05  2.1595694533649727e-12  3.0949130561999950e-05  -8.8568608019939269e-09  -8.5963672096196576e-13  -1.5000556190212155e-04  -3.0322118272530353e-04  -7.7695522847305834e-08  4.1805622566569625e-13  -3.8721560609219307e-09  1.5095479952107598e-02  6.6310315526733110e-08  2.9848559689834540e-03  -1.7970781842322712e-08  1.3430652706289698e-02  -2.7907736247611006e-05  -6.9664222936435682e-06  -8.7025608401503582e-06  3.4872754816490645e-08  -1.5207419614828900e-08  -1.5778740838969998e-05  4.8722326565350929e-02  -3.7806634936714545e-02  4.3720823844062110e-08  8.0207523675236629e-07  1.9683656267472627e-06  2.2178863995028685e-04  -5.8575299848302465e-05  8.6330265930702351e-04  3.0114814419018951e-06  -5.5820710437912238e-13  -1.4930646954226629e-13  2.2335648406490594e-08  -1.5200047303095159e-05  -1.0256429889991219e-05  -1.7912413607744789e-06  3.3397133025426112e-01  4.8174597724498338e-03  4.0732888753292263e-05  9.9725614074966940e-05  -1.9734659718642469e-06  5.5405643944870763e-06  9.7906328925122764e-07  1.9376064513230458e-04  -5.3770199982659896e-02  -2.0880330977603688e-02  -3.4567655586910118e-13  -9.1043112952246420e-03  -3.6903154768585379e-03  1.0474815795473947e-09  2.6112751679165785e-01  1.2185801447814506e-11  -1.1206255073648434e-08  1.9971838037902194e-02  1.9114791237153803e-01  3.5157827864314342e-08  6.0162264572632032e-12  1.2201395012859041e-09  -8.2925169389730884e-07  7.5026645176367877e-10  2.8100983682809012e-09  1.9503031892083287e-09  -7.3908740449544030e-10  -9.6361693695684171e-08  1.2865544726118775e-03  -1.9618387520961407e-05  -3.2181208606267070e-06  -7.3682220101570933e-06  -4.8837833147038145e-01  2.4150660375303869e-06  -1.8822618204499579e-05  5.8057533523676308e-09  4.3594415091265729e-09  1.4083755022152708e-08  -2.8761994008154746e-09  3.0039511110601430e-11  3.8337519216814836e-05  1.0293361355826826e-01  -1.0337863824272198e-01  -4.0363555704611199e-05  7.2052797977404226e-06  -6.5454505699146460e-10  2.4297505676543798e-08  5.6809532354633326e-10  -3.4772766337458637e-06  1.2643980732692375e-01  -3.1352776121525705e-01  -1.6303373997540830e-04  1.5263855948854800e-09  4.6454807043275670e-01  6.2082462587735206e-03  -2.7209480129577843e-02  -1.0544496233295488e-07  -1.9823670229887520e-06  -6.8500473666932782e-05  1.8813939531940926e-01  -8.7182871242904018e-13  2.3929700316784188e-06  -1.9829625830863619e-05  3.1753768905707002e-13  -1.0440597761325403e-12  -8.7136344789810118e-09  5.8575367827397633e-08  1.2384842461186255e-05  -5.0162175545195651e-09  -3.9059561803608371e-07  -1.4313096416820048e-08  3.0394991552812846e-10  -2.3771448087601035e-01  6.2513728785870780e-09  -1.4729892494465065e-03  -1.3084397395892363e-07  -1.2896720006998894e-01  -3.5565077270541415e-05  -5.9734175781637750e-07  8.4520764152326990e-10  5.9535495449402415e-09  -2.7596451773420215e-04  -1.9038847210537477e-02  1.1105409192615187e-12  1.2131796749324456e-05  -2.0921807698078262e-13  1.1863550118822988e-11  -2.3295197289264406e-08  1.2533271573640632e-08  -7.3868713675102329e-07  -7.6815069999800348e-03  8.1856614630085187e-09  -8.2091663396315143e-03  6.1753265776700035e-05  5.1184067620502008e-06  -4.9972112881212938e-01  -3.9169242358699269e-01  2.6071939118694501e-02  1.3997707129334561e-01  -2.2882942495866654e-01  -1.4496315519343906e-03  1.8623383475696678e-09  2.6214012619783338e-08  7.9746791310280178e-05  -5.4778634596207770e-09  9.6295317297300115e-09  1.9207665886839236e-08  6.1615453511594164e-08  1.1567004372100969e-09  3.9551048994491116e-08  -3.4908649453775650e-09  2.6501138046069231e-05  -8.4456288277145650e-05  2.4050880261581164e-05  3.0987238635655837e-12  9.3854172617877389e-04  4.9806601601069855e-01  3.9109101868648993e-01  6.6756253718275240e-05  -2.8653271071706185e-12  6.8239291968371089e-11  2.1672282075904849e-11  4.7317589444030632e-11  3.1352493285844105e-05  -5.4937539000315070e-05  -8.3071585373471951e-02  -5.3588158805696461e-03  -4.3621067846295405e-06  4.2571998977521513e-06  2.0029653917684015e-08  -1.7362553593233923e-01  3.6218681145734450e-07  2.9204395896601706e-12  1.6291165050184918e-10  3.3689881958872759e-11  -3.8725866048389535e-01  -2.6347857681479285e-08  4.1517967525838403e-02  -2.4366837734722791e-06  -2.6194675585797673e-04  -1.5859222231290254e-02  1.9619717756297387e-08  4.1973707936720563e-05  1.5351084267666996e-09  -1.0151910225882546e-12  -4.2798392209081382e-02  -8.3354434225384210e-04  9.2271382488355890e-12  6.0002294323954108e-08  4.7964640781468235e-07  -1.1388615337638846e-05  -1.5495612752533854e-09  1.5932161930643155e-04  9.6367803377305392e-10  -3.4267804836969809e-09  8.0393243034592506e-04  7.8428304562725967e-02  -1.5735810178702103e-07  -1.5905492812070366e-08  3.8013815369887133e-01  8.6469346414487416e-05  5.0054914592127319e-05  -1.1810693894191257e-04  8.6955099348507963e-03  5.2089995708385228e-01  -2.2561032228531946e-01  -6.9851997970202070e-02  -5.1928674990102819e-01  -1.7305202333392836e-08  3.1645713608636268e-09  -5.9927827408534100e-10  3.7257262344639250e-07  7.0226040322849846e-04  5.2956707488421195e-06  -2.8324573987679386e-05  -1.6413275969307794e-07  8.5016640971958026e-07  5.6789289450920123e-08  -2.2948152374286886e-06  6.8356853678319237e-10  1.6141687050928878e-10  3.4644449176594488e-08  2.2811634449325149e-04  -1.0977753620281277e-08  5.2981021668834308e-08  4.2593454616255172e-12  2.5373606199528041e-11  1.4442416886442968e-08  -2.1301558463970270e-08  3.8484520793231433e-02  7.8868307448832248e-02  -1.9413205829128906e-08  3.9429830945219105e-10  2.2681888515552683e-05  -8.0875141524199661e-07  -1.8220040654919769e-11  3.0088190148537642e-09  4.1636198203453586e-07  1.8954224129808159e-03  1.2638751976637996e-07  3.3566370650225527e-08  7.3854457956101697e-12  7.9354176288075893e-13  -4.4002458089946108e-11  1.1111077382982771e-08  5.9757653363603319e-12  4.7415501977701271e-09  1.2377032016934624e-09  6.5034960477559530e-09  -1.6881879726724794e-08  1.5025730468157504e-08  -4.7781574599215579e-09  -1.2912019660587211e-09  -3.5404054786980565e-09  4.3957494034511336e-03  -2.0233887007451706e-01  -8.3879230899865840e-09  -1.0862978591861701e-09  5.4138156607522136e-09  3.7400782170100602e-08  1.4249860402601003e-09  -6.5639693430818613e-07  -7.6800034020213834e-02  7.9720529147999323e-03  7.8894347877956073e-02  4.7101925251582005e-11  1.2710018221664423e-07  4.7669649398588317e-03  1.3217961831365869e-08  1.1475069806224043e-02  2.9178531055478318e-08  4.9182430259792752e-03  8.2120238508145259e-12  6.7594408904175535e-12  -1.8253153699693764e-08  1.1571574991455399e-10  -1.4723035069142321e-11  -4.6291529593186595e-02  -3.6891715211044791e-02  -2.4750739061839279e-08  -2.3318906639436122e-08  1.6425752561213347e-09  -4.3574419528202646e-03  -3.8175798834777302e-04  -4.8470936503871171e-07  1.3390160258262440e-06  -6.2096936805384930e-05  -9.3336531792983878e-05  2.8668409715017752e-07  -2.3445193523299684e-05  3.8837407739981989e-06  -3.4826251256455476e-11  1.5649987491229299e-09  -3.2081241858227351e-09  -3.6399102804250192e-06  2.2363039538190312e-10  6.1922683395919860e-07  -3.6478562287322541e-09  5.7824425434297291e-10  -3.1002201708579645e-04  1.5676147366586624e-09  -7.8775551613937782e-03  2.0733031685605738e-05  6.5462281405813374e-08  2.3342774929158034e-10  -1.8970027702056018e-05  2.0444705618972539e-05  1.3991215481203436e-09  1.6349661712801567e-12  -9.2981539071511143e-13  1.0653991491113722e-01  -6.8612169779718277e-02  6.8883306602068331e-02  -5.2888484171420530e-02  2.4184224472951760e-09  -3.8410919769978001e-10  2.3883123556366602e-08  4.7704054855852736e-09  -4.0779988457779622e-06  -8.8498689898362365e-06  -8.5430549014691395e-02  -2.1033719123765920e-07  2.0186770994944072e-12  -2.5934238184856787e-08  -5.2702429537718902e-05  1.4518739588233138e-08  7.2320679873334200e-13  -9.3709422766764436e-13  8.1900349373894078e-09  -2.0334652042156454e-02  2.9192525588606785e-08  -2.9134183737238745e-01  2.7414057205894260e-01  -4.0067277179700654e-05  1.4210643777270148e-06  4.3109862116985836e-05  1.0138248655281681e-07  2.8307362230797577e-03  -4.3370992297522127e-06  2.0585035212271558e-03  1.1387564777074406e-12  -3.2089943898824253e-06  -1.1380349504792842e-08  1.0461