<?xml version="1.0"?>
<VTKFile type="UnstructuredGrid"  version="0.1"  >
<UnstructuredGrid>
<Piece  NumberOfPoints="2912" NumberOfCells="5086">
<Points>
<DataArray  type="Float64"  NumberOfComponents="3"  format="ascii">-20 2.5 0  -20 0 0  -1 0 0  -0.9996988186962042 0.02454122852291233 0  -0.9987954562051724 0.04906767432741797 0  -0.9972904566786902 0.07356456359966773 0  -0.9951847266721968 0.09801714032956083 0  -0.99247953459871 0.1224106751992163 0  -0.989176509964781 0.1467304744553618 0  -0.9852776423889412 0.1709618887603012 0  -0.9807852804032304 0.1950903220161286 0  -0.9757021300385285 0.21910124015687 0  -0.970031253194544 0.2429801799032641 0  -0.9637760657954398 0.2667127574748985 0  -0.9569403357322088 0.2902846772544624 0  -0.9495281805930367 0.3136817403988914 0  -0.9415440651830207 0.3368898533922203 0  -0.9329927988347388 0.3598950365349883 0  -0.9238795325112867 0.3826834323650899 0  -0.9142097557035307 0.4052413140049899 0  -0.9039892931234433 0.427555093430282 0  -0.8932243011955152 0.4496113296546069 0  -0.8819212643483549 0.4713967368259979 0  -0.8700869911087113 0.4928981922297841 0  -0.857728610000272 0.5141027441932218 0  -0.8448535652497071 0.5349976198870972 0  -0.8314696123025453 0.5555702330196022 0  -0.8175848131515836 0.5758081914178454 0  -0.8032075314806448 0.5956993044924335 0  -0.7883464276266062 0.6152315905806269 0  -0.773010453362737 0.6343932841636455 0  -0.7572088465064846 0.6531728429537766 0  -0.7409511253549589 0.6715589548470186 0  -0.7242470829514668 0.6895405447370671 0  -0.7071067811865475 0.7071067811865476 0  -0.6895405447370669 0.7242470829514669 0  -0.6715589548470184 0.740951125354959 0  -0.6531728429537765 0.7572088465064847 0  -0.6343932841636454 0.7730104533627371 0  -0.6152315905806267 0.7883464276266063 0  -0.5956993044924334 0.8032075314806449 0  -0.5758081914178453 0.8175848131515837 0  -0.555570233019602 0.8314696123025455 0  -0.534997619887097 0.8448535652497072 0  -0.5141027441932217 0.8577286100002721 0  -0.492898192229784 0.8700869911087115 0  -0.4713967368259977 0.881921264348355 0  -0.4496113296546067 0.8932243011955152 0  -0.4275550934302819 0.9039892931234434 0  -0.4052413140049897 0.9142097557035307 0  -0.3826834323650897 0.9238795325112867 0  -0.3598950365349882 0.9329927988347388 0  -0.3368898533922199 0.9415440651830208 0  -0.3136817403988914 0.9495281805930367 0  -0.2902846772544622 0.9569403357322089 0  -0.2667127574748983 0.9637760657954398 0  -0.2429801799032639 0.970031253194544 0  -0.2191012401568697 0.9757021300385286 0  -0.1950903220161282 0.9807852804032304 0  -0.1709618887603012 0.9852776423889412 0  -0.1467304744553616 0.989176509964781 0  -0.1224106751992162 0.99247953459871 0  -0.09801714032956065 0.9951847266721969 0  -0.07356456359966733 0.9972904566786902 0  -0.04906767432741801 0.9987954562051724 0  -0.02454122852291214 0.9996988186962042 0  6.123233995736766e-17 1 0  0.02454122852291226 0.9996988186962042 0  0.04906767432741813 0.9987954562051724 0  0.07356456359966745 0.9972904566786902 0  0.09801714032956077 0.9951847266721968 0  0.1224106751992163 0.99247953459871 0  0.1467304744553617 0.989176509964781 0  0.1709618887603014 0.9852776423889412 0  0.1950903220161283 0.9807852804032304 0  0.2191012401568698 0.9757021300385286 0  0.242980179903264 0.970031253194544 0  0.2667127574748984 0.9637760657954398 0  0.2902846772544623 0.9569403357322089 0  0.3136817403988916 0.9495281805930367 0  0.3368898533922201 0.9415440651830208 0  0.3598950365349883 0.9329927988347388 0  0.3826834323650898 0.9238795325112867 0  0.4052413140049899 0.9142097557035307 0  0.4275550934302822 0.9039892931234433 0  0.4496113296546066 0.8932243011955153 0  0.4713967368259978 0.8819212643483549 0  0.4928981922297841 0.8700869911087113 0  0.5141027441932217 0.8577286100002721 0  0.5349976198870973 0.844853565249707 0  0.5555702330196023 0.8314696123025452 0  0.5758081914178453 0.8175848131515837 0  0.5956993044924335 0.8032075314806448 0  0.6152315905806268 0.7883464276266062 0  0.6343932841636455 0.773010453362737 0  0.6531728429537768 0.7572088465064845 0  0.6715589548470183 0.7409511253549591 0  0.6895405447370669 0.7242470829514669 0  0.7071067811865476 0.7071067811865475 0  0.724247082951467 0.6895405447370668 0  0.7409511253549591 0.6715589548470183 0  0.7572088465064846 0.6531728429537768 0  0.773010453362737 0.6343932841636455 0  0.7883464276266063 0.6152315905806268 0  0.8032075314806449 0.5956993044924334 0  0.8175848131515837 0.5758081914178453 0  0.8314696123025452 0.5555702330196022 0  0.8448535652497071 0.5349976198870972 0  0.8577286100002721 0.5141027441932217 0  0.8700869911087115 0.492898192229784 0  0.881921264348355 0.4713967368259976 0  0.8932243011955153 0.4496113296546065 0  0.9039892931234433 0.4275550934302821 0  0.9142097557035307 0.4052413140049899 0  0.9238795325112867 0.3826834323650898 0  0.932992798834739 0.3598950365349881 0  0.9415440651830208 0.3368898533922201 0  0.9495281805930367 0.3136817403988915 0  0.9569403357322088 0.2902846772544623 0  0.9637760657954398 0.2667127574748984 0  0.970031253194544 0.2429801799032639 0  0.9757021300385286 0.2191012401568698 0  0.9807852804032304 0.1950903220161282 0  0.9852776423889412 0.1709618887603012 0  0.989176509964781 0.1467304744553617 0  0.99247953459871 0.1224106751992162 0  0.9951847266721969 0.0980171403295606 0  0.9972904566786902 0.07356456359966743 0  0.9987954562051724 0.04906767432741801 0  0.9996988186962042 0.02454122852291229 0  1 0 0  20 0 0  20 2.5 0  0 2.5 0  -10 2.5 0  10 2.5 0  -10.5 0 0  -5 2.5 0  10.5 0 0  5 2.5 0  -5.75 0 0  5.75 0 0  -15.25 0 0  -15 2.5 0  15.25 0 0  15 2.5 0  -17.625 0 0  -17.5 2.5 0  17.5 2.5 0  17.625 0 0  12.5 2.5 0  12.875 0 0  -12.5 2.5 0  -12.875 0 0  -2.5 2.5 0  2.5 2.5 0  -8.125 0 0  -7.5 2.5 0  8.125 0 0  7.5 2.5 0  -3.375 0 0  3.375 0 0  -18.75 2.5 0  20 1.25 0  16.4375 1.19375 0  -16.25 2.5 0  13.75 2.5 0  -14.0625 0 0  -11.6875 0 0  11.6875 0 0  8.75 2.5 0  -8.75 2.5 0  6.9375 0 0  6.25 2.5 0  -6.25 2.5 0  -9.3125 0 0  -6.9375 0 0  9.3125 0 0  11.25 2.5 0  -11.25 2.5 0  3.75 2.5 0  4.5625 0 0  -4.5625 0 0  -3.75 2.5 0  -13.75 2.5 0  14.0625 0 0  -16.4375 0 0  -20 1.25 0  -18.8125 0 0  18.75 2.5 0  -18.21875 1.2359375 0  18.125 1.278125 0  -15.84375 1.2125 0  -14.375 1.30859375 0  14.65625 1.203125 0  2.1875 0 0  -2.1875 0 0  13.125 1.315625 0  3.125 1.315625 0  -3.125 1.315625 0  -12.28125 1.1890625 0  -5.15625 1.184375 0  11.09375 1.184375 0  5.625 1.325 0  -10.97262068800044 1.220713793599868 0  9.375 1.32734375 0  -6.875 1.32734375 0  -9.67626828410207 1.24449497187193 0  8.061334925608099 1.312208731402025 0  -8.188665074391901 1.312208731402025 0  -1.25 2.5 0  1.25 2.5 0  4.37465139623265 1.41327350462657 0  16.25 2.5 0  6.84375467392576 1.430449641528851 0  -1.846573640185365 1.334702047669377 0  1.846573640185365 1.334702047669377 0  -17.02955351149946 1.396129584721571 0  16.4375 0 0  18.8125 0 0  -13.31314667860176 1.511193493282891 0  -4.122005747945582 0.961844908681634 0  12.12799425205442 0.961844908681634 0  15.54930641305724 1.660405980876393 0  19.0578783583929 0.9559530595267438 0  8.71875 0.6864560603786576 0  -7.53125 0.6864560603786576 0  -0.6257799091428727 1.819008129832856 0  0.6257799091428734 1.819008129832855 0  6.291331569065717 0.7194652423646902 0  -19.11204717950418 0.9044926794710327 0  -4.488713231834613 1.772186102355655 0  11.76128676816539 1.772186102355655 0  -19.28185607205105 1.781856072051052 0  19.30868080343342 1.808680803433421 0  9.90625 0.6371857066656857 0  -6.34375 0.6371857066656857 0  3.796921710049233 0.7617406159238448 0  7.392020585015773 0.7480839107774819 0  -8.910372062800235 0.7929553447587234 0  10.2506781820361 1.451853913138859 0  -5.999321817963904 1.451853913138859 0  4.957643119381741 0.7716423099297361 0  17.29984375 0.8640625 0  15.41193625859067 0.8279888354083842 0  -13.72251704931534 0.7728002662082776 0  16.875 2.5 0  17.12178336313261 1.690954734835967 0  -11.64001625260176 1.74572103154608 0  2.477726735235857 0.7850262278604345 0  13.46875 0 0  13.765625 0.7802887470308788 0  -2.78125 0 0  -2.477726735235857 0.7850262278604346 0  -10.33383379274331 1.744431431923121 0  13.91957519050334 1.653419259628842 0  -15.08147780274903 0.8341506893754731 0  -15.14066649024666 1.671962869821843 0  -8.950686484882164 1.678622661163363 0  -17.55392917606836 0.794731598412167 0  -16.80247533599675 0.6688259240674158 0  -12.94289066923278 0.7766744225472476 0  -9.90625 0 0  -10.31601468672093 0.7730817089126454 0  -18.21875 0 0  -12.28125 0 0  -17.68515668569534 1.768907656575843 0  18.21875 0 0  10.85059123027421 1.880344717307101 0  -5.399408769725794 1.880344717307101 0  -3.738137326223278 1.749164834446819 0  -3.125 2.5 0  12.46235897590077 1.601301060091387 0  -11.09375 0 0  -11.61661448001209 0.7781698802173554 0  -15.625 2.5 0  -1.764022608759088 0.6027229563180789 0  1.59375 0 0  -8.125 2.5 0  8.125 2.5 0  8.713468311289519 1.727645658498745 0  9.375 2.5 0  -7.536531688710481 1.727645658498745 0  -6.875 2.5 0  14.375 2.5 0  17.78381794101733 1.874391370085592 0  18.59891476281433 1.80649740393129 0  -18.58835555265984 1.824268641341969 0  1.806126122135773 0.6510673837470153 0  -16.875 2.5 0  -16.36681393636619 1.755298393865037 0  -16.13072438662071 0.6014017614895231 0  -13.92460230791385 1.83195710210235 0  -14.40198779087891 0.6105385965811564 0  20 0.625 0  19.40625 0 0  14.6875 1.888836596385542 0  14.65625 0 0  12.78248197181444 0.6991460920542635 0  -3.467518028185561 0.6991460920542635 0  13.125 2.5 0  2.491957142932539 1.738660596534321 0  3.125 2.5 0  1.875 2.5 0  3.718973573227002 1.75927763286174 0  -2.491957142932539 1.738660596534321 0  -1.875 2.5 0  -9.375 2.5 0  6.2001972846108 1.772767401802766 0  5.625 2.5 0  5.027483518098582 1.760895488350309 0  5.625981449127788 0.6566963631252629 0  -12.30101114679273 1.859484693920165 0  9.742489932362783 1.884363450023167 0  -6.507510067637216 1.884363450023166 0  1.13492303295015 1.283502262067074
[...]
<PointData  Scalars="f_13526213"> 
<DataArray  type="Float64"  Name="f_13526213"  format="ascii">1.4392841389897348e-01  -4.9340202884654460e-02  -1.3445075968430689e-01  -9.9907524615914678e-02  -1.3282325726661404e-01  -2.7191806654826051e-01  -3.4469329228973539e-01  -4.3178272560334024e-01  -6.0704894009544097e-01  -8.3526273862194256e-01  -9.3588242746573480e-01  -1.3289895114397468e+00  -1.7407036546658168e+00  -2.1178436850685323e+00  -2.5964293995525041e+00  -3.0613571499129009e+00  -3.7180842949706010e+00  -4.3725230008410625e+00  -5.1458320296438487e+00  -5.8172451072410407e+00  -6.7509120982507165e+00  -7.6137763122003053e+00  -8.4000166084309189e+00  -9.3963938123920219e+00  -1.0254409503426007e+01  -1.1071960120575628e+01  -1.1844773023590324e+01  -1.2649529488627898e+01  -1.3349222098102533e+01  -1.4176845310030822e+01  -1.4783376504053498e+01  -1.5393138399505785e+01  -1.5870083150974741e+01  -1.6406254051980355e+01  -1.6942332653309059e+01  -1.7250097125313943e+01  -1.7547412724782117e+01  -1.7932617618010216e+01  -1.8095538002366691e+01  -1.8122097429024461e+01  -1.8110263254902655e+01  -1.8104099581311981e+01  -1.7985937956037180e+01  -1.7799461539322426e+01  -1.7547666038312379e+01  -1.7308864595378154e+01  -1.6724870389834855e+01  -1.6499542927101096e+01  -1.6137686620582006e+01  -1.5553319833486290e+01  -1.4890922717112993e+01  -1.4307621470041125e+01  -1.3632523961259562e+01  -1.2841006075417067e+01  -1.2049208240636370e+01  -1.1212313630303838e+01  -1.0389212113874025e+01  -9.4927169642140097e+00  -8.4829215163487532e+00  -7.5813417104674921e+00  -6.5576777574686140e+00  -5.4715770198386924e+00  -4.4696034224434413e+00  -3.4119915423875256e+00  -2.2965289355951271e+00  -1.2214121260847404e+00  -1.4390671898244645e-01  9.4610716392902172e-01  2.0274206313479599e+00  3.0973763029494341e+00  4.2524654682059930e+00  5.2336863700055565e+00  6.2569630516296986e+00  7.4130588847637400e+00  8.3411057556499824e+00  9.3370696079024658e+00  1.0304628041457235e+01  1.1352508428966102e+01  1.1932490541318939e+01  1.2923681244476446e+01  1.3828016457287431e+01  1.4683050206721070e+01  1.5349052288487123e+01  1.6031469731430057e+01  1.6646203809911931e+01  1.7207084533658385e+01  1.7764027493131014e+01  1.8252447167470013e+01  1.8611109549484858e+01  1.8981499301080422e+01  1.9279745090093712e+01  1.9513595462957532e+01  1.9671214090461500e+01  1.9788319825484749e+01  1.9923770315270875e+01  1.9857273381064484e+01  1.9644180550549148e+01  1.9628192707637698e+01  1.9383213302232040e+01  1.9004916451019998e+01  1.8769002733496233e+01  1.8427750967701677e+01  1.7850401253214695e+01  1.7201892238110318e+01  1.6647835242638642e+01  1.5893809832958141e+01  1.5279089706677848e+01  1.4343029466801402e+01  1.3482146120497980e+01  1.2266903134368027e+01  1.1114936583967058e+01  9.8073851621166952e+00  8.6059073245598743e+00  7.3383983496304257e+00  5.8534756445096860e+00  4.5769382254279778e+00  3.4033612266239568e+00  2.3134495223196359e+00  1.5668138232508451e+00  9.7461814950146919e-01  7.6390779439689316e-01  5.2678279256311311e-01  3.4072494943178683e-01  2.0483606546014890e-01  1.2100097859415572e-01  7.4789961490103696e-02  5.3266368460627392e-02  2.6112216902809911e-02  1.3124536075166978e-02  -7.5038848879756780e-04  7.5232797456525032e-03  2.2590499701727124e-07  1.5228329440163123e-07  -5.8067275775502969e+00  2.3074780334928188e-06  2.4772423659289690e-05  5.7220762673108215e-06  1.4107373945128888e-02  1.1193319915724700e-04  7.3937733462436928e-02  -2.1898766118150781e-02  1.9077312703774701e-01  2.6294019213814507e-03  9.3227217125731404e-04  -1.4271398448224565e-07  1.4186018579063335e-07  7.1636207737965397e-03  1.3248558624538954e-02  7.7014257460460950e-08  1.9091574821470996e-07  2.4961945327616020e-06  -5.3899315240610442e-06  1.7043842031958217e-05  3.6409544248691689e-04  3.4056321252799904e-01  -8.2699447023690953e-01  -6.8297836639855645e-04  2.3140267833388084e-04  9.4407502361842071e-03  3.7588096720079477e-03  -5.0562524703340173e-01  1.9306595421712089e+00  4.6133736561404286e-02  2.3684928564826582e-06  2.4295793128762335e-06  3.6209565172454694e-03  7.3909707361671274e-07  1.0868683068650910e-03  8.5891251340518935e-05  -9.3200463635086597e-06  3.9644195039574895e-04  2.8203306705986289e-05  4.7100587147598190e-02  1.9052014041369601e-02  1.7167954863403843e-03  -9.3766267735299205e-05  -4.3700239226131810e-03  1.4103653304935477e-03  6.7271733527391739e-06  -1.9049437525933769e-06  1.8321515374237612e-01  6.5172981701653820e-01  -1.1167018144992039e-01  7.9667739628095161e-02  2.1235751751149824e-04  -1.2766995498551479e-06  4.9887014675785704e-03  -1.3184854887411371e-02  3.5396625602734646e-03  1.2531224524902959e-07  7.6444414267486530e-03  2.5400892531916941e-06  1.5245113569043770e-03  1.7896860738281909e-04  2.6336491506185736e-06  4.8551407059692346e+00  -2.5690373773705830e+00  5.1547014975491583e-06  -6.0976722998570354e-01  -1.6554602803668734e-02  3.6217129773981711e-05  4.6229287016118226e-03  4.7691938428384196e-05  5.1160984947704574e-02  5.5683229904625887e-06  5.2237722701490316e-04  7.1607760655370274e-04  1.0810641445346083e-05  3.3347296660869376e-03  1.2944622246018891e-04  -2.2090909286432114e+00  -7.3423728703294104e+00  7.3638742481257676e-03  9.5183099329628219e-08  7.2113649925381364e-03  -1.1338786730097625e+00  -5.9972051084629561e+00  3.5449325977358285e-03  -4.2745785371456835e-08  3.8007039070958187e-07  -4.7907953556857682e-05  -2.5390807892851516e-02  6.7041941083000558e-06  2.8473147742613997e-06  2.2751331720388493e-06  3.3827016122363342e-03  -4.7878395336074401e-04  -5.1159429445728613e+00  -1.3521457282752635e+01  8.2214092264377606e-02  -1.7237069047348366e-02  3.6904634590015480e-02  2.6516219188157399e-05  3.1824802266546694e-02  2.4981127727950429e-06  4.4690384957902748e-04  -3.5767657630398778e-03  7.9874509616867273e-01  2.1014810619359524e-02  -4.1354724300082785e-05  1.4369149432907251e-04  2.5556434950484001e-03  3.0137383617376534e-01  2.4100168422663255e-06  2.4015492508435766e-06  5.8421176935095030e-04  1.5504084732355279e-07  2.7587925056178889e-06  -1.9401947553855562e-05  1.7598045590439777e+00  -2.9151193412817185e-06  1.5445682347044491e-06  -1.1401202832557038e+00  -1.0131809134409371e+00  2.6067792341706450e-06  4.1303350834210130e-06  1.7271297139556565e-03  -4.5522157240698890e-04  4.9368028264260573e-05  5.6946723868848614e-03  5.2189143225216360e-03  2.6675326339282887e-04  -2.1282866748850444e-05  5.1611254811617969e-06  7.1822964863797484e-03  1.8036895881226592e-04  6.7353981810959508e-03  2.2130515585456748e-07  5.9350758238845042e-05  1.1491639032940785e-02  7.3017065274311635e-02  1.8656475583507834e-01  1.3270694813731110e-05  3.5431827594371980e-05  5.2798126478373400e-05  1.8956982597724910e-03  -3.8284294053362031e+00  5.7094240049030702e+00  1.1254651997040808e-04  1.2995081535826947e-03  2.9938236416144205e-04  1.0740545624614658e-04  4.5006108634441212e-04  5.6173114648494374e-04  5.1144049226994243e-07  2.6202817422576193e-06  2.5617515793694105e-06  2.1643242400393524e-02  4.4016792518273355e+00  6.8103248920523907e-03  7.3458804385257228e-04  3.9569880111232740e-03  -2.3160134119210501e-04  1.2946827388113115e-03  2.1385262385349623e-06  5.3766320911805067e-07  2.9429215780900268e-06  -5.3499305035084862e-07  -3.5350032066083264e-07  -1.9461978605914496e-01  1.2183085900269885e-06  -3.9336656498517679e+00  1.5206414781837257e-01  -4.9695317974494051e+00  -4.6955701967507341e-01  6.0844749285878935e-02  2.6365263787376658e-01  1.0750482034845933e-05  -6.2644856689179074e-03  4.5160007117939022e-02  -3.6966652638295273e-02  1.7904316207868556e-01  -5.7286205003974259e-05  1.4150578352336337e-04  2.1049293992654243e-03  -7.4727713777203668e+00  -3.9262692382742657e+00  5.1380699855823384e-06  -3.4457916622246572e-02  1.0174384666562077e-04  -8.1639529884066052e-03  2.7501689254039849e-06  1.6759039995839438e+00  2.0627575127896560e-08  2.0660040301776946e-06  -2.0370232835268943e-04  9.3223725892385614e-03  6.6045924033087560e-04  -5.5682349807639997e-01  -1.1676548750049582e+01  -6.2646439725881170e-06  -9.2374054467363464e-06  -2.6415663109175191e-01  1.4964624112972175e-05  -1.5672615985116323e-05  2.0837774515313216e-06  2.4180371062712428e-02  7.9830384752198444e-05  -2.3610565319224864e-03  3.2181915702235030e-03  -5.9339923674644371e-02  4.5168684922270612e-04  9.9428032522172662e-03  1.3893863807097717e-01  -1.0680377387119968e+01  -5.9498962990902696e-07  1.7364429207811948e-07  1.6572708265732902e-06  9.6048325913798957e-02  3.7273286655096728e-06  3.7553732539966057e-02  -6.2253092157762406e+00  -5.3371643227187082e+00  1.3289132305810434e-07  4.2121922692465716e-02  2.5615580423020645e-06  1.8886120246690587e-07  9.3767273038326088e-06  4.0946768000002650e-03  -4.3142459570309869e-04  2.6335291723075612e-05  2.0918239276363870e-06  -4.9355343542476830e-02  1.3477407072159909e-05  1.9753475514682506e-06  -4.4081413747745182e-04  1.4777953848108883e-04  -1.3636758204963232e-04  1.7731990062945770e-04  -1.7400457654331764e-03  1.3464517298173424e-03  -6.0044854185853405e+00  1.7851181882575741e-03  6.4791059014407361e-04  3.5646338099729968e-01  -2.2886053134068922e-04  2.2048995291491780e-02  1.1385101109139781e+00  -9.1772074641517480e-03  4.5128073197363945e-04  9.9506917269538919e-02  -1.5680198617489054e-03  3.7951396712626569e-03  6.4491216925020786e-03  3.6886281865206507e-03  3.1852807136059336e+00  1.0936626776705308e-07  -1.1537029764015012e+00  7.4749362458595524e-06  1.7262350129705425e-01  -1.6987059293941037e-02  2.9395576805240835e-03  2.0848496791430226e-06  6.5939477157116022e-01  3.2212372011197143e-03  2.0798595640372391e-03  4.9840547617768884e-02  2.3847856783437933e-06  -1.1514116162338371e-01  2.5419290249503545e-06  2.6598416891975367e-05  5.6010539161594745e-05  1.8655265634050282e-06  5.1467197012049952e-03  8.0048929772432768e-05  -1.0741239332853076e-04  -1.7023792130151135e-03  4.1691371943286728e-03  2.7961033782291076e-03  2.1032365817781138e-05  -1.3401956634954020e-02  2.8015769742041736e-02  -1.4614800535204275e-04  2.0541454349296481e-04  1.9135452357719653e-03  9.6839773305443418e-04  1.7076365495707625e-04  1.2647764221795368e-05  4.3610524235639077e-03  7.2294848241696748e-03  1.9321116532899965e-06  -1.0064993230945411e-01  -7.2883927300111004e-06  2.4303365597723763e-06  2.6161247483443259e-06  1.7678248585516580e-02  -5.8958663720947879e-01  7.3283816262532941e-02  2.4829904377320149e-06  2.7014232951089843e-06  1.4976101183231407e-06  4.7680684641016574e-02  6.5197622783195611e-03  -9.6443712142581475e-02  -7.6854282189270844e+00  4.6431217848231872e-06  2.1501648268174405e-04  1.3794570875594920e-05  2.8231773872588683e-06  5.5271466691017869e-06  3.7038108510104576e-06  3.1014532936925080e-06  -9.4551582797220744e-05  3.0379906454949356e-06  4.9195329747984697e+00  6.2084732290844247e-06  -1.3529082344512473e+00  -4.6371552890942236e-01  -1.6743163119100096e-02  -6.0473978629937988e-02  -6.8785150443025897e-02  5.6769728241256373e-03  2.2208351323939147e-06  -5.5491806567557873e+00  -2.3593179464714269e+00  -1.2549773944643691e+01  -9.9700693803213607e+00  -1.0695000526750320e+01  5.1397081149208998e-04  2.1239536568517696e-03  1.7236968733461096e-06  -1.3506029119437962e-01  2.7201861684701817e-06  2.5856302119359889e-05  2.4500387455652938e-06  1.9234680408155462e-06  -2.3995008761743023e-06  2.3954631626375034e-05  -2.6448892533804665e-02  1.5988099219216721e-04  1.4014295369452947e-03  1.7299284887536050e-02  3.2344635721223941e-05  3.4506295115894380e-06  6.1711919381456171e-03  -6.7962144445224209e-04  -1.3037182376655262e-02  -7.0864346979481764e-04  1.3906428484362514e-04  1.5370764181001650e-02  1.4270019250990376e-01  8.2065890213262535e-02  5.7031474631613326e-05  5.3457340045145907e-02  2.2684663081245720e-06  7.7936699568268430e-02  3.9370280722154558e-05  1.5932031342467387e-02  1.6883248855484695e-05  1.5956101848837882e-02  -3.1674097146059672e-06  -9.2725550573646764e-05  5.3490208941384108e-06  1.8562048319100729e-06  2.0422671384016413e-06  4.1216046936425774e-05  -7.0272720146005900e+00  -9.7051338343784668e+00  2.1863719488148841e-06  9.9000297878372150e-05  2.0616832704944697e-04  -4.0698001737047350e-05  1.3465435208655280e-03  3.2608988294226096e-05  2.4909697820561653e-04  8.9983134517471114e-02  1.1961376603802308e-01  2.1878548169612725e-06  -1.6008565548412761e-04  2.8851402971120804e-02  2.2193456327174624e-03  -1.7426703418355063e+00  -1.9319649767879657e-01  3.4532927407986830e-02  2.3586127500383886e-02  -8.1962868622172425e-06  6.1638516801069282e-04  2.0319877092841280e-04  -1.0938855397575865e-02  3.1738566206077218e-01  1.5373165340956469e+00  -1.6062486905564718e-02  2.8143372061448740e-01  5.3838092237517410e-01  3.9675495667673832e-06  -6.2994595628408510e+00  2.5668763082020226e-03  -6.0464882806676545e-06  -2.6143600435176723e-01  -1.7100547003641373e-01  2.4459728429838024e-06  1.8381723175251018e-03  7.0847707499973766e-07  6.3387289266724238e-04  1.9213568068569434e-03  9.0313714605442369e-04  1.1193187882619627e-04  -1.0735712803539570e-05  -4.5517024585064658e-06  2.1479454606785142e-01  8.8160604667052143e-05  4.4844677756701618e-05  2.5021181061444334e-05  -6.2429703642839609e+00  8.4957814900414792e-04  -4.3813813447635712e-03  6.2246750242565504e-04  9.3115791154046263e-04  2.2712135838525677e-04  1.4646791730849499e-06  5.8458742649774079e-04  1.8052006910359235e-02  -1.3673709935345006e+00  4.0765121550227281e+00  -1.4951718881059521e-03  2.6888426088131391e-03  1.1467836248968930e-07  2.3594471020105949e-06  2.9786282701556527e-04  2.7755779591618879e-07  -3.6327347295108620e-01  7.6049480263933475e-02  -1.7814489285289933e-02  -6.0814155342156778e-07  -6.3190335605736490e+00  7.9945549805047172e-02  -2.4010512243587496e+00  1.2121616962804263e-06  8.9205583856361072e-06  -5.7051154798317219e-04  -2.3845502078039851e+00  5.1104677543196760e-02  1.2715790502388337e-04  4.9630093363907998e-04  9.3336403841967966e-03  5.0386699547498017e-03  2.9861080722008473e-06  2.3443130100531464e-06  7.5178270594676111e-04  8.4085851083780994e-06  5.7433630221610788e-07  2.2939917238715166e-06  -2.5042809715539904e-04  8.4958495562420673e+00  3.4262790289780051e-07  3.2581975709471778e-01  1.6109690760575168e-05  7.6351767233876744e-01  2.5781880642280320e-04  1.3237944886878412e-05  -2.2004899382170901e-04  -1.0617711667850733e-06  -8.2236800530791118e-02  4.0260317071620938e-01  3.3998485872591008e-02  -2.3971598088398145e-04  1.8104445513236905e-02  5.6236202217759112e-03  2.7057915320770133e-06  -2.4534950255399995e-05  1.0152774440069150e-05  -4.1559272183271206e-01  -2.5544147697979299e-05  -2.0245142557664320e-01  1.0505737171010585e-02  -4.4610844455871367e-05  -3.5195326730150880e+00  -1.0352662246744423e+01  -1.3012062956682985e-01  -1.4206424393160932e-01  -4.1449893429145872e+00  1.3464572581998815e-01  1.7702419278477760e-06  2.7296244166744421e-06  -2.4854590614990018e-03  6.1474334777306572e-05  3.2989669246051611e-04  1.2016703693624935e-04  2.3286870707792251e-06  8.4123635720616740e-04  2.7588537831091543e-06  2.4682511918346627e-06  -3.6519521429257047e-03  6.8654550822777832e-04  7.1008669927503031e-04  9.5286210440361854e-03  6.9418131300824906e-03  -3.2611638131533134e+00  -1.4345808747608151e+00  4.0534654010134202e-02  5.4261451655432036e-03  5.1648201131749899e-03  5.4874779878864681e-03  4.3467988324548280e-03  4.6151917969808514e-03  -1.2393672242682626e-04  -1.7237633700446156e+00  4.0347926568744086e-02  7.1030462596717206e-02  8.6295344569052260e-02  -2.3097728185071980e-05  5.0373745550768900e+00  7.2769039581782222e-05  4.0361161185758178e-03  1.2750877886561970e-03  2.0685304910060924e-03  -1.3062198918896875e+01  2.5076381460442507e-06  3.7836717544923203e-02  5.3210520131380130e-03  -4.6690120296931911e-02  1.0271196044291497e+00  2.1162221206603434e-06  -3.3543976265440804e-02  4.4678923529948569e-05  9.5427059713756399e-03  -3.7591089432643049e-01  -9.3413732264265269e-03  8.9668122129088045e-04  2.7085705014362421e-06  9.4531094838771365e-05  6.7979723554460070e-03  2.5742963502095417e-06  6.1401819183799951e-03  4.6553101683310982e-06  1.7975651908573009e-05  2.5857998741839288e-02  1.0482184362810219e-01  -2.0311053917748345e-06  2.4302031195341627e-06  -2.6722453142481011e+00  4.1596422834270638e-03  2.5799630780360913e-03  1.4292749283497708e-02  5.2480966213260066e-02  -7.4650402911217455e+00  -9.5301296926055805e+00  2.9620254408778290e+00  2.9388855998710719e+00  8.4705536706351948e-06  -2.6722157384478161e-07  1.0219209123843069e-05  5.5137037763317475e-05  -2.1873764082655935e-02  1.1009363466435069e-03  9.4934286319631558e-04  6.0114773626650955e-05  1.2561320205446835e-04  -5.0835312340137170e-05  5.5528978126571425e-06  2.7368521756190142e-03  1.3738364369201063e-07  1.9283573519526927e-06  8.8189263737613932e-01  -6.7304807949539175e-07  2.5811896496149150e-06  9.8252390292891800e-03  5.7189274629973041e-03  2.4373928881599077e-06  1.1224590746211981e-06  -4.5114211368931623e-01  -1.8965931322909041e-01  3.6904555639726135e-06  2.9302055625197248e-03  -8.9307780201621813e-04  -1.4257736923173584e-07  1.4022057577521834e-03  1.2857382908046237e-03  5.2671359882405246e-05  -7.1277600258775652e-03  4.3402126061546444e-05  1.5359120422201615e-06  9.6602817581683473e-03  2.6784838451951041e-02  7.1358135370289794e-04  4.8160868168725484e-04  -4.3341192392218723e-03  -1.9990332145042550e-04  -1.3133812918848345e-04  -1.9205689578184474e-04  1.8198608575687021e-05  2.8434436948703743e-06  3.0818381022362034e-06  2.3089270086510928e-06  2.4037873550927058e-06  -4.0146861568042000e+00  6.7693207899886358e+00  -4.6727342945670973e-06  2.8017440827233894e-05  -4.4963700423351293e-05  1.8754608199173720e-06  3.1670132832378340e-07  5.4347081601730622e-06  -1.1337704432585481e+01  -6.9551596427525864e+00  -4.8714178862715682e+00  2.3391782659536045e-04  2.2933754866386818e-05  -7.8876026077580562e-03  3.2375447666019909e-06  -4.4522720511486188e-02  -7.7790789240206540e-06  -7.7421347416920250e-02  -7.4698542381188317e-03  8.2161777767418445e-04  2.8587555312825234e-06  4.0579872817795718e-03  4.2186860532453995e-03  1.3376923492634836e+00  2.3102562885802733e+00  2.6183206041690400e-06  2.3579025578851801e-06  4.5657550578069897e-07  -6.4233131389814430e-02  2.1015228749434850e-01  1.0521519382154413e-05  1.4343356146990298e-04  2.4858889943794775e-03  1.4808912375907290e-03  9.2761998131116402e-05  1.5208118565352782e-03  2.7138820044014371e-04  1.6672490169283060e-06  2.4528896513837470e-08  1.3392867321917352e-06  1.6289722413648216e-05  3.9529746662281089e-03  2.1026657545450724e-05  1.3686031180754558e-07  6.1823102965096396e-07  1.2948836343421583e-01  1.7390700628061573e-03  -3.1641995210263443e+00  5.7004954996483174e-03  4.8354700661276223e-05  2.7641070040421091e-03  -3.7252385814325138e-04  1.0484782694536718e-02  1.6752615242685034e-06  1.8350755827190111e-02  -6.3323508037833376e-02  -4.4753976522823341e-02  -1.0751057891283665e+01  -1.2243489489686898e+00  -9.2150871014086952e+00  8.8544694764738394e-08  -5.1830695428438814e-07  1.8208122171515649e-06  -2.8571778386666190e-05  -4.9053309208956067e-05  -3.4182867922118363e-05  5.5155887323299602e-01  2.6501313763681258e-05  -2.4046667793908984e-02  2.5621941701600694e-06  2.6598607055705942e-01  -8.0287256709575620e-05  -2.1969616827130316e-02  -6.3406750910563567e-02  -1.6131108351785829e-04  -4.3555653157829761e+00  2.6003820543232816e-06  -1.2996125121430552e+01  -4.3520010836406059e-01  1.8071284405760231e-05  4.1429892708838947e-04  -7.3472271118069973e-03  7.1488183709489914e-07  -4.6257504053359606e-02  2.6480117370054865e-05  -8.0661633532863564e-01  4.3049276779301452e-03  8.0440200045351970e-05  2.4298234544056002e-06  -4.9396970753491955e-08  2.8055646677989263e-06  -1.2975687922154766e+01  -8.384289891061612