<?xml version="1.0"?>
<VTKFile type="UnstructuredGrid"  version="0.1"  >
<UnstructuredGrid>
<Piece  NumberOfPoints="2937" NumberOfCells="5112">
<Points>
<DataArray  type="Float64"  NumberOfComponents="3"  format="ascii">-20 2.5 0  -20 0 0  -1 0 0  -0.9996988186962042 0.02454122852291233 0  -0.9987954562051724 0.04906767432741797 0  -0.9972904566786902 0.07356456359966773 0  -0.9951847266721968 0.09801714032956083 0  -0.99247953459871 0.1224106751992163 0  -0.989176509964781 0.1467304744553618 0  -0.9852776423889412 0.1709618887603012 0  -0.9807852804032304 0.1950903220161286 0  -0.9757021300385285 0.21910124015687 0  -0.970031253194544 0.2429801799032641 0  -0.9637760657954398 0.2667127574748985 0  -0.9569403357322088 0.2902846772544624 0  -0.9495281805930367 0.3136817403988914 0  -0.9415440651830207 0.3368898533922203 0  -0.9329927988347388 0.3598950365349883 0  -0.9238795325112867 0.3826834323650899 0  -0.9142097557035307 0.4052413140049899 0  -0.9039892931234433 0.427555093430282 0  -0.8932243011955152 0.4496113296546069 0  -0.8819212643483549 0.4713967368259979 0  -0.8700869911087113 0.4928981922297841 0  -0.857728610000272 0.5141027441932218 0  -0.8448535652497071 0.5349976198870972 0  -0.8314696123025453 0.5555702330196022 0  -0.8175848131515836 0.5758081914178454 0  -0.8032075314806448 0.5956993044924335 0  -0.7883464276266062 0.6152315905806269 0  -0.773010453362737 0.6343932841636455 0  -0.7572088465064846 0.6531728429537766 0  -0.7409511253549589 0.6715589548470186 0  -0.7242470829514668 0.6895405447370671 0  -0.7071067811865475 0.7071067811865476 0  -0.6895405447370669 0.7242470829514669 0  -0.6715589548470184 0.740951125354959 0  -0.6531728429537765 0.7572088465064847 0  -0.6343932841636454 0.7730104533627371 0  -0.6152315905806267 0.7883464276266063 0  -0.5956993044924334 0.8032075314806449 0  -0.5758081914178453 0.8175848131515837 0  -0.555570233019602 0.8314696123025455 0  -0.534997619887097 0.8448535652497072 0  -0.5141027441932217 0.8577286100002721 0  -0.492898192229784 0.8700869911087115 0  -0.4713967368259977 0.881921264348355 0  -0.4496113296546067 0.8932243011955152 0  -0.4275550934302819 0.9039892931234434 0  -0.4052413140049897 0.9142097557035307 0  -0.3826834323650897 0.9238795325112867 0  -0.3598950365349882 0.9329927988347388 0  -0.3368898533922199 0.9415440651830208 0  -0.3136817403988914 0.9495281805930367 0  -0.2902846772544622 0.9569403357322089 0  -0.2667127574748983 0.9637760657954398 0  -0.2429801799032639 0.970031253194544 0  -0.2191012401568697 0.9757021300385286 0  -0.1950903220161282 0.9807852804032304 0  -0.1709618887603012 0.9852776423889412 0  -0.1467304744553616 0.989176509964781 0  -0.1224106751992162 0.99247953459871 0  -0.09801714032956065 0.9951847266721969 0  -0.07356456359966733 0.9972904566786902 0  -0.04906767432741801 0.9987954562051724 0  -0.02454122852291214 0.9996988186962042 0  6.123233995736766e-17 1 0  0.02454122852291226 0.9996988186962042 0  0.04906767432741813 0.9987954562051724 0  0.07356456359966745 0.9972904566786902 0  0.09801714032956077 0.9951847266721968 0  0.1224106751992163 0.99247953459871 0  0.1467304744553617 0.989176509964781 0  0.1709618887603014 0.9852776423889412 0  0.1950903220161283 0.9807852804032304 0  0.2191012401568698 0.9757021300385286 0  0.242980179903264 0.970031253194544 0  0.2667127574748984 0.9637760657954398 0  0.2902846772544623 0.9569403357322089 0  0.3136817403988916 0.9495281805930367 0  0.3368898533922201 0.9415440651830208 0  0.3598950365349883 0.9329927988347388 0  0.3826834323650898 0.9238795325112867 0  0.4052413140049899 0.9142097557035307 0  0.4275550934302822 0.9039892931234433 0  0.4496113296546066 0.8932243011955153 0  0.4713967368259978 0.8819212643483549 0  0.4928981922297841 0.8700869911087113 0  0.5141027441932217 0.8577286100002721 0  0.5349976198870973 0.844853565249707 0  0.5555702330196023 0.8314696123025452 0  0.5758081914178453 0.8175848131515837 0  0.5956993044924335 0.8032075314806448 0  0.6152315905806268 0.7883464276266062 0  0.6343932841636455 0.773010453362737 0  0.6531728429537768 0.7572088465064845 0  0.6715589548470183 0.7409511253549591 0  0.6895405447370669 0.7242470829514669 0  0.7071067811865476 0.7071067811865475 0  0.724247082951467 0.6895405447370668 0  0.7409511253549591 0.6715589548470183 0  0.7572088465064846 0.6531728429537768 0  0.773010453362737 0.6343932841636455 0  0.7883464276266063 0.6152315905806268 0  0.8032075314806449 0.5956993044924334 0  0.8175848131515837 0.5758081914178453 0  0.8314696123025452 0.5555702330196022 0  0.8448535652497071 0.5349976198870972 0  0.8577286100002721 0.5141027441932217 0  0.8700869911087115 0.492898192229784 0  0.881921264348355 0.4713967368259976 0  0.8932243011955153 0.4496113296546065 0  0.9039892931234433 0.4275550934302821 0  0.9142097557035307 0.4052413140049899 0  0.9238795325112867 0.3826834323650898 0  0.932992798834739 0.3598950365349881 0  0.9415440651830208 0.3368898533922201 0  0.9495281805930367 0.3136817403988915 0  0.9569403357322088 0.2902846772544623 0  0.9637760657954398 0.2667127574748984 0  0.970031253194544 0.2429801799032639 0  0.9757021300385286 0.2191012401568698 0  0.9807852804032304 0.1950903220161282 0  0.9852776423889412 0.1709618887603012 0  0.989176509964781 0.1467304744553617 0  0.99247953459871 0.1224106751992162 0  0.9951847266721969 0.0980171403295606 0  0.9972904566786902 0.07356456359966743 0  0.9987954562051724 0.04906767432741801 0  0.9996988186962042 0.02454122852291229 0  1 0 0  20 0 0  20 2.5 0  0 2.5 0  -10 2.5 0  10 2.5 0  -10.5 0 0  -5 2.5 0  10.5 0 0  5 2.5 0  -5.75 0 0  5.75 0 0  -15.25 0 0  -15 2.5 0  15.25 0 0  15 2.5 0  -17.625 0 0  -17.5 2.5 0  17.5 2.5 0  17.625 0 0  12.5 2.5 0  12.875 0 0  -12.5 2.5 0  -12.875 0 0  -2.5 2.5 0  2.5 2.5 0  -8.125 0 0  -7.5 2.5 0  8.125 0 0  7.5 2.5 0  -3.375 0 0  3.375 0 0  -18.75 2.5 0  20 1.25 0  16.4375 1.19375 0  -16.25 2.5 0  13.75 2.5 0  -14.0625 0 0  -11.6875 0 0  11.6875 0 0  8.75 2.5 0  -8.75 2.5 0  6.9375 0 0  6.25 2.5 0  -6.25 2.5 0  -9.3125 0 0  -6.9375 0 0  9.3125 0 0  11.25 2.5 0  -11.25 2.5 0  3.75 2.5 0  4.5625 0 0  -4.5625 0 0  -3.75 2.5 0  -13.75 2.5 0  14.0625 0 0  -16.4375 0 0  -20 1.25 0  -18.8125 0 0  18.75 2.5 0  -18.21875 1.2359375 0  18.125 1.278125 0  -15.84375 1.2125 0  -14.375 1.30859375 0  14.65625 1.203125 0  2.1875 0 0  -2.1875 0 0  13.125 1.315625 0  3.125 1.315625 0  -3.125 1.315625 0  -12.28125 1.1890625 0  -5.15625 1.184375 0  11.09375 1.184375 0  5.625 1.325 0  -10.97262068800044 1.220713793599868 0  9.375 1.32734375 0  -6.875 1.32734375 0  -9.67626828410207 1.24449497187193 0  8.061334925608099 1.312208731402025 0  -8.188665074391901 1.312208731402025 0  -1.25 2.5 0  1.25 2.5 0  4.37465139623265 1.41327350462657 0  16.25 2.5 0  6.84375467392576 1.430449641528851 0  -1.846573640185365 1.334702047669377 0  1.846573640185365 1.334702047669377 0  -17.02955351149946 1.396129584721571 0  16.4375 0 0  18.8125 0 0  -13.31314667860176 1.511193493282891 0  -4.122005747945582 0.961844908681634 0  12.12799425205442 0.961844908681634 0  15.54930641305724 1.660405980876393 0  19.0578783583929 0.9559530595267438 0  8.71875 0.6864560603786576 0  -7.53125 0.6864560603786576 0  -0.6257799091428727 1.819008129832856 0  0.6257799091428734 1.819008129832855 0  6.291331569065717 0.7194652423646902 0  -19.11204717950418 0.9044926794710327 0  -4.488713231834613 1.772186102355655 0  11.76128676816539 1.772186102355655 0  -19.28185607205105 1.781856072051052 0  19.30868080343342 1.808680803433421 0  9.90625 0.6371857066656857 0  -6.34375 0.6371857066656857 0  3.796921710049233 0.7617406159238448 0  7.392020585015773 0.7480839107774819 0  -8.910372062800235 0.7929553447587234 0  10.2506781820361 1.451853913138859 0  -5.999321817963904 1.451853913138859 0  4.957643119381741 0.7716423099297361 0  17.29984375 0.8640625 0  15.41193625859067 0.8279888354083842 0  -13.72251704931534 0.7728002662082776 0  16.875 2.5 0  17.12178336313261 1.690954734835967 0  -11.64001625260176 1.74572103154608 0  2.477726735235857 0.7850262278604345 0  13.46875 0 0  13.765625 0.7802887470308788 0  -2.78125 0 0  -2.477726735235857 0.7850262278604346 0  -10.33383379274331 1.744431431923121 0  13.91957519050334 1.653419259628842 0  -15.08147780274903 0.8341506893754731 0  -15.14066649024666 1.671962869821843 0  -8.950686484882164 1.678622661163363 0  -17.55392917606836 0.794731598412167 0  -16.80247533599675 0.6688259240674158 0  -12.94289066923278 0.7766744225472476 0  -9.90625 0 0  -10.31601468672093 0.7730817089126454 0  -18.21875 0 0  -12.28125 0 0  -17.68515668569534 1.768907656575843 0  18.21875 0 0  10.85059123027421 1.880344717307101 0  -5.399408769725794 1.880344717307101 0  -3.738137326223278 1.749164834446819 0  -3.125 2.5 0  12.46235897590077 1.601301060091387 0  -11.09375 0 0  -11.61661448001209 0.7781698802173554 0  -15.625 2.5 0  -1.764022608759088 0.6027229563180789 0  1.59375 0 0  -8.125 2.5 0  8.125 2.5 0  8.713468311289519 1.727645658498745 0  9.375 2.5 0  -7.536531688710481 1.727645658498745 0  -6.875 2.5 0  14.375 2.5 0  17.78381794101733 1.874391370085592 0  18.59891476281433 1.80649740393129 0  -18.58835555265984 1.824268641341969 0  1.806126122135773 0.6510673837470153 0  -16.875 2.5 0  -16.36681393636619 1.755298393865037 0  -16.13072438662071 0.6014017614895231 0  -13.92460230791385 1.83195710210235 0  -14.40198779087891 0.6105385965811564 0  20 0.625 0  19.40625 0 0  14.6875 1.888836596385542 0  14.65625 0 0  12.78248197181444 0.6991460920542635 0  -3.467518028185561 0.6991460920542635 0  13.125 2.5 0  2.491957142932539 1.738660596534321 0  3.125 2.5 0  1.875 2.5 0  3.718973573227002 1.75927763286174 0  -2.491957142932539 1.738660596534321 0  -1.875 2.5 0  -9.375 2.5 0  6.2001972846108 1.772767401802766 0  5.625 2.5 0  5.027483518098582 1.760895488350309 0  5.625981449127788 0.6566963631252629 0  -12.30101114679273 1.859484693920165 0  9.742489932362783 1.884363450023167 0  -6.507510067637216 1.884363450023166 0  1.13492303295015 1.283502262067074
[...]
<PointData  Scalars="f_4332903"> 
<DataArray  type="Float64"  Name="f_4332903"  format="ascii">1.4258238661504335e-01  -4.9899048658437473e-02  -1.3973351555887356e-01  -9.9101748152016569e-02  -1.4135091150452414e-01  -3.5437980233007055e-01  -4.5256729482067781e-01  -5.5386407616810085e-01  -7.7988374262279059e-01  -1.1211690320690517e+00  -1.2720565281640377e+00  -1.8426135357626801e+00  -2.4247457871554459e+00  -2.9264463864606114e+00  -3.4556019474323758e+00  -4.2436596665041684e+00  -5.0491804305349763e+00  -5.8734640636853364e+00  -6.7215128047167969e+00  -7.4807864422821355e+00  -8.4273483760469450e+00  -9.3430651303017829e+00  -1.0160668281937642e+01  -1.1084617758237266e+01  -1.1931648775905296e+01  -1.2690444299691794e+01  -1.3422112642153726e+01  -1.4173276672601334e+01  -1.4867323863102850e+01  -1.5545713753663637e+01  -1.6092733576189381e+01  -1.6664292339674819e+01  -1.7114653367277381e+01  -1.7586154490304949e+01  -1.8035175024560655e+01  -1.8331192672197073e+01  -1.8551693392148909e+01  -1.8838261868421434e+01  -1.8871347965878616e+01  -1.8865444967246759e+01  -1.8837239989769863e+01  -1.8794690991222765e+01  -1.8627834820889095e+01  -1.8380578964745283e+01  -1.8089580502802242e+01  -1.7819288875570042e+01  -1.7209112454301366e+01  -1.6915981836097895e+01  -1.6520323327441616e+01  -1.5897832707357283e+01  -1.5214122844985367e+01  -1.4628150216354889e+01  -1.3937800666347767e+01  -1.3031443418594673e+01  -1.2258184510493466e+01  -1.1318842325906274e+01  -1.0536163191881045e+01  -9.6992221646310028e+00  -8.5339813189668519e+00  -7.7139557506990881e+00  -6.7107470700050689e+00  -5.4624171400540309e+00  -4.4493179794022550e+00  -3.3871409963888084e+00  -2.3497918701620333e+00  -1.2371567421127951e+00  -1.3554958889591023e-01  1.0360673455250267e+00  2.0653798104136749e+00  3.1074609729494744e+00  4.3344873185340935e+00  5.3416931676965476e+00  6.4267729952085171e+00  7.4491904955617834e+00  8.4785268605014448e+00  9.5199246716731309e+00  1.0482633205333462e+01  1.1440137669421242e+01  1.2207586627450890e+01  1.3211615468369814e+01  1.4136433389383475e+01  1.4842889715192300e+01  1.5677488041318645e+01  1.6384730217699417e+01  1.6983793153113421e+01  1.7518639249118181e+01  1.8116510894663740e+01  1.8596747967870449e+01  1.9019318753642857e+01  1.9351549227897042e+01  1.9733762016558732e+01  1.9969520694142130e+01  2.0109071856510408e+01  2.0285170022159473e+01  2.0475705761851717e+01  2.0381265169707270e+01  2.0152416852648756e+01  2.0135258070994258e+01  1.9898532884328194e+01  1.9520227214235067e+01  1.9290573342276442e+01  1.8995944016726874e+01  1.8414438478390213e+01  1.7768090287548784e+01  1.7122456961195148e+01  1.6401702500422292e+01  1.5776804326080235e+01  1.4928609340837973e+01  1.4111032217841354e+01  1.3003979510689776e+01  1.1919578495123032e+01  1.0950467994986749e+01  9.9594723053485765e+00  8.6477361856074211e+00  7.7164913100672727e+00  6.6162629174681058e+00  5.3851353831451521e+00  3.5791248257973312e+00  2.5936101819031769e+00  1.6497133799678652e+00  1.1819948294457823e+00  7.3845447681201271e-01  4.2946168121734696e-01  2.2792448840313867e-01  8.6487608517443137e-02  2.7926044291879639e-02  1.6146501552521603e-03  -2.7457160043026885e-02  -2.7670920086190431e-02  -3.9908942042465374e-02  -2.8986128192065693e-02  2.9975896539603828e-07  1.8266613272946526e-07  -5.3756800489876495e+00  2.6608248766834775e-05  4.3757478135058514e-03  3.9240858685387535e-05  1.7436095198678343e-02  3.8523328940458508e-03  1.4205925662054217e-01  -2.8143866916674250e-02  3.6987495582144991e-01  2.8172154893963451e-03  1.0698222524477719e-03  9.0293864409192572e-06  2.3742840121380890e-05  7.5379364125767118e-03  1.3426634671108518e-02  7.8228219103801028e-07  3.5107214640623524e-07  4.3754430061265402e-04  2.4310949415396713e-04  1.1253693300808913e-04  5.4522574149232044e-04  3.4635828715306616e-01  -1.4185523305638410e+00  -1.2211467196778247e-03  3.4383745090373768e-04  4.2369940110099230e-02  2.9499182156329556e-02  -6.1165224805191332e-01  2.5115255942093531e+00  4.6010582354959577e-02  2.7781856871804686e-06  6.2930682784698842e-06  3.6741932445188219e-03  1.1219806412667527e-04  1.2808029936804313e-03  2.0274194010559674e-04  1.0349505954951902e-03  1.1690599765246987e-02  7.1963023116931711e-05  1.2870366411008904e-01  6.3493722798566646e-02  2.2631413495846444e-03  -2.0481003871352638e-04  -6.3691752721938052e-03  1.3386395700014164e-02  1.4056730762548402e-03  3.8200510462737496e-05  2.1023427286739305e-01  1.0041532532087745e+00  -1.3542007928053321e-01  9.5582811952850649e-02  3.7208885691683119e-04  5.1322392917938136e-05  5.2355314005942434e-03  -1.3531811289463996e-02  2.6133179935868092e-03  2.7029607045198760e-07  7.0040180669070145e-03  3.2222892048628765e-06  1.2946902137300287e-03  1.0477521438461780e-04  4.2266828086254005e-05  5.5982362631681646e+00  -3.2532076674500052e+00  2.5516043188899060e-04  -1.1171226748432626e+00  -6.7248770199548780e-02  6.8980732836040272e-05  3.5202085325162467e-03  1.9987472611448700e-03  7.5244739192336207e-02  2.4133116572352419e-05  8.1988485286953582e-03  6.4138830007616260e-04  2.5997829990019495e-05  2.2067248539107076e-02  1.4849561530516037e-04  -2.9042250549194795e+00  -7.4901759036273203e+00  -1.0715417433441000e-01  4.6052235840402971e-06  2.5877244523072416e-02  -1.7798563748179084e+00  -5.7097209405779541e+00  2.7463447711447504e-03  1.3431768946728963e-06  4.3319894938693819e-07  -9.2329922801275745e-05  -3.7480115414278890e-02  7.1326725556904527e-04  1.7705617129987230e-05  2.8318184295674413e-06  2.2620168240822438e-02  -8.4298117037856501e-04  -5.2142501060360900e+00  -1.3624286560461440e+01  1.8118962846876369e-01  -1.6936721538017799e-02  3.8706947713160203e-02  1.0258822186140063e-03  3.0899413975625713e-02  2.7727559883011113e-06  7.2750294103293440e-03  -5.0862701596850243e-03  9.5396365014807916e-01  7.0813015635081994e-02  -9.5791743774323914e-05  3.9044298531520751e-03  2.3071663220451621e-03  4.6638420311748419e-01  3.5621530654699697e-06  1.3241585077706509e-05  7.1668701718433244e-04  1.9773844420158700e-06  4.5446554485140271e-06  -4.6216686881713155e-05  1.6801226670687388e+00  1.1237564559336372e-04  9.5669629913864445e-05  -1.3815307280292104e+00  -1.4138432960107641e+00  6.2347298545414682e-06  1.1342511488250795e-04  1.7298216909783133e-03  -6.1733228042481277e-04  7.7706795018070044e-05  5.3014779185955952e-03  5.0478807544011867e-03  3.9504191576422785e-04  -3.7176985990740224e-05  3.7207637044518379e-05  7.6633593121733469e-03  3.3162374690630863e-04  5.4374811334418358e-03  2.4802900159446721e-07  2.2199544569407861e-03  1.2638974864859416e-02  7.0869645841857898e-02  2.1627723887055125e-01  5.4474844049866083e-04  1.1320406532231452e-04  1.3865079293496268e-04  1.9954218220772212e-03  -5.0230550421693465e+00  6.6517473490948884e+00  2.0663545929736968e-04  1.8911856787525730e-02  8.8057375002698508e-03  7.2283759637998589e-03  5.2682129612700716e-04  8.3501811920450302e-04  5.4471860928191524e-05  3.3299320784126259e-06  2.8980771588402637e-06  1.8673711110485981e-02  4.0996991972184809e+00  6.8132732554527552e-03  4.2431834809594402e-04  3.8858129076826745e-03  -3.3213935451508511e-04  1.4342130033204213e-03  2.8020092313872107e-06  6.2157886852482406e-07  4.8109932391243616e-05  2.1622878418645810e-05  2.9881655464848147e-04  -2.4777323003529408e-01  2.1978795897635949e-04  -5.0112129354153341e+00  -9.6629695686418771e-03  -4.6258323240849464e+00  -9.7212433050835079e-01  -5.1386908149852674e-02  1.2783961439566180e-01  3.9110302330058107e-05  -1.1759119084426018e-02  1.0661449459046714e-01  -1.1718500615015974e-01  3.2963911068417079e-01  -1.1657079049459626e-04  5.0013947793385027e-03  2.3536361213116197e-03  -7.3180334377053304e+00  -4.8936684835066036e+00  1.2619165287988962e-03  -4.3606773945221139e-02  3.5251153691905953e-03  -1.0993463971677093e-02  8.7332351285295371e-06  1.8002984982738730e+00  3.8784355838911583e-06  5.3275369018545565e-06  -3.9823515197298469e-04  4.2487862440421541e-02  1.4510532551140751e-02  -1.0878942512776564e+00  -1.2218075513307156e+01  -1.4201164815442994e-05  5.2041442663611930e-04  -3.1555827506454998e-01  3.5829257881579364e-05  -2.4066058260997016e-05  2.8062272364149026e-06  2.4153199726686017e-02  2.1108714068100124e-04  -1.8282414197358511e-03  1.1474383988243505e-03  -6.1437663848582104e-02  6.2450091866091714e-04  4.6265705849892799e-02  2.1359843201730022e-01  -1.1062064586989136e+01  2.7429605578231469e-05  4.5602692777635828e-07  6.3062697159820908e-05  9.6530932538276992e-02  7.7155804781703634e-04  4.6859420989177433e-02  -6.0017089592583384e+00  -5.1497690040529021e+00  1.0962617321998650e-05  4.3012961872867260e-02  2.6969818424165629e-06  3.0316365595781045e-07  2.5172999855752210e-03  5.3010989013639268e-03  -6.3014493675929819e-04  9.8938479733458396e-05  3.6024992699003105e-06  -6.0659878330885306e-02  2.0258049537230727e-03  2.0753498590904504e-05  -5.8233588272931761e-04  2.1961079668572574e-04  9.6143630463221812e-03  3.2753981256470872e-04  -2.6244045594069100e-03  1.3307594713221764e-02  -7.9465171640861501e+00  1.9842632903627330e-03  8.4156771068625875e-04  6.0826716666899150e-01  -4.5961411126132199e-04  7.4612240636500404e-02  1.5931711487979703e+00  -1.2528830820251038e-02  7.3090220724530671e-03  2.2258090465321428e-01  -2.5370416975394501e-03  2.3917309384909522e-02  6.8086759118644053e-03  3.8844056114534274e-03  3.8595659374922184e+00  5.3414091642771668e-07  -1.9861301350242562e+00  3.1218844124658048e-04  1.6583188134485227e-01  -4.3567982397802296e-02  2.5217469315701527e-03  2.7476822151056101e-06  9.3111936577703458e-01  3.2749339912097591e-03  1.7426609314064514e-03  1.3306968138195258e-01  9.5977696635588092e-06  -2.7912742165456178e-01  3.5761000974153089e-06  3.9625543537839446e-05  2.5019424583957577e-05  5.0629439873185964e-05  5.7009598681247251e-03  3.4079160106617696e-03  -1.8365313355952017e-04  9.1426579485251250e-03  4.1440047119876292e-03  -1.4084015896080701e-03  1.1896439179922651e-03  -3.3213778089971266e-02  6.2204989593559815e-02  -2.0567105258252800e-04  1.7526775261872540e-04  1.6074077155153223e-02  1.1279747246103547e-03  6.5635206338081819e-03  6.5450468416422287e-04  4.4859416425099656e-03  3.2317269422052680e-02  2.4869303404030909e-06  -1.2093820487339393e-01  7.0571452221780239e-04  2.1342338274930284e-05  2.3533439001573226e-05  -1.6049453422334398e-01  -7.1259484045851285e-01  7.5601423577355956e-02  3.0991981908717738e-06  3.1465144103811236e-06  1.7819385446341186e-04  4.8686138370433722e-02  5.5610103242062295e-03  -2.7147523900710963e-01  -8.1381653526863396e+00  2.2041589130635150e-05  2.6754844218021561e-04  3.4872463471629965e-05  3.2960319532127133e-06  1.9226191569245705e-04  1.4440989530563182e-04  7.9041718437268760e-05  -1.7544026278269425e-04  8.3394223956437347e-05  5.2218585553015302e+00  4.4268352632266213e-04  -1.8137746498517278e+00  -7.7755702235997126e-01  -1.8223447500168591e-02  -6.3094265426627119e-02  -7.1695845848354797e-02  5.7757811044018090e-03  5.6112031171549926e-06  -7.1586659616084063e+00  -2.9655347038089057e+00  -1.2958164944511818e+01  -9.8115644541789440e+00  -1.0533860985229378e+01  7.2387543355965868e-04  2.2722538357785446e-03  6.8484248399256676e-06  -3.5199023102076443e-01  5.9898363981782834e-06  4.9435766961398677e-05  4.4128510450686392e-06  2.7285401332996244e-06  1.7229951968612871e-04  2.2361486865172986e-03  -3.3117044151203187e-02  5.0754834808188189e-05  1.3513638951696588e-02  1.7923942943759104e-02  1.4417219869409810e-03  6.8217875496888773e-05  3.3040068755470858e-02  -1.1477617736804799e-03  -1.4436847339036642e-02  1.4011552906894938e-02  2.9677931607997242e-04  1.4375881992470901e-02  3.0012479585544993e-01  1.5839487863258331e-01  1.6601255669275827e-04  5.1652196815055125e-02  3.3155260765390433e-06  2.6577378769398613e-02  1.5201487133603391e-03  1.5462737385046629e-02  8.0465130829297674e-04  1.0179170998006873e-02  -4.4926645725269353e-05  -1.8842987263848507e-04  8.3186359192425172e-06  1.9839305186821674e-06  1.0161045208772123e-05  5.7697928971040738e-05  -6.7320068381644944e+00  -9.3732703573258629e+00  2.8361025342831478e-06  3.1386445011706648e-03  4.8259053407030275e-03  -7.2436735167659069e-04  1.2588271734080803e-03  -1.2896751824121090e-03  5.5815445052479554e-03  9.0206523890433613e-02  1.2132855372148295e-01  2.2746452684739756e-06  -3.0780843798978872e-04  7.8900353732069439e-02  2.3200573085000942e-02  -2.3484417797260244e+00  -4.9044722303948901e-01  1.0541109980494524e-01  6.9478362741297761e-02  3.6574854969064282e-06  8.6732258554874705e-03  5.0499279046176820e-03  -1.4369232999800828e-02  2.1021125329956478e-01  2.0000123752543013e+00  -1.6875599939944714e-02  3.5938352295323117e-01  8.5994014817836384e-01  1.3778484815654720e-04  -8.2904824395189873e+00  2.3400376667884401e-03  4.2178680300178725e-04  -3.1190713092154648e-01  -3.2600444683553681e-01  3.0376655753922075e-06  1.7466276091605080e-03  3.4832745941386291e-05  1.4323168366703642e-02  1.8418373606246682e-03  9.3000117534424386e-04  1.6692421137505015e-05  -1.6170325339040866e-05  -1.0762989940592612e-05  2.5267020521412503e-01  1.1423289518900123e-04  7.2002644404691425e-05  4.1796614373615063e-05  -5.9074383577271350e+00  1.0322719052197745e-02  -6.1056335889801729e-03  7.0592065597038019e-04  1.1439029219763306e-03  2.9149178864272681e-04  1.0738223694609249e-05  5.0019349313430077e-04  6.6785288518763905e-02  -1.8635707115054720e+00  4.4869053939134460e+00  -2.3031727256940925e-03  2.0089280321882879e-02  2.9681656807462717e-07  2.7172781903132024e-06  1.0563509603370773e-04  1.4293597502176756e-05  -4.9658481476647193e-01  -8.2951122918282594e-01  -4.7136512183048096e-02  1.0447629327040366e-04  -6.8877106239799604e+00  7.7405757879297710e-02  -3.4909446237196167e+00  1.3597969108060915e-05  2.1687622119578930e-05  -1.0916427011779513e-03  -2.7363121036366005e+00  5.1628568251641062e-02  7.9766695226316815e-03  5.7457713241484715e-04  9.3220002586967988e-03  4.8541501758199920e-03  2.9487965491843630e-05  3.2337604921363961e-06  1.0181658383485373e-02  4.4995253228782524e-04  5.4648615186615297e-06  4.1939637387893733e-06  -3.3599297995536806e-04  9.6487353382483825e+00  5.9763604457154546e-05  5.6588028143663205e-01  4.9359656239069277e-05  5.3440494262864335e-01  3.1225001388937557e-04  6.8965696823744852e-05  -2.8370091536970978e-04  1.4803915564572459e-03  -9.9838430568825784e-02  4.7153818087688892e-01  3.4180114291632986e-02  1.3185362580590920e-02  1.8139163682961250e-02  4.9907786750330724e-03  1.1133242138078172e-05  -5.2348971097629767e-05  4.8736873129658176e-05  -8.5977316983356267e-01  -4.4257137148912473e-05  -4.8434143188127809e-01  4.3851531510862386e-02  8.9294410654768789e-03  -3.4203479087848661e+00  -1.0759746299400613e+01  -1.5978061904420796e-01  -2.6241254765090122e-01  -4.8255080682584488e+00  2.2050584037656251e-01  2.3489478834136386e-06  3.0412715046601131e-06  3.7048707712288771e-03  1.3230106067118163e-04  5.2355190788912296e-04  1.9748311687896818e-04  3.0055136594699897e-06  7.5937982812641805e-04  3.3237437097620752e-06  2.5062519347881440e-05  3.0975144963913698e-03  7.6554639579216128e-04  1.1372275965083490e-02  7.6057175464022244e-03  6.4641069817830453e-03  -4.3800822308767300e+00  -2.1625405262062349e+00  1.0004136264109084e-01  5.6866946156299203e-03  5.2328481473841735e-03  5.2101943127018449e-03  3.8860151977442451e-03  2.6737213395835305e-02  -2.9426120035834741e-04  -2.5132651727598008e+00  -2.6213874565070894e-02  1.7227944525570676e-01  2.0402997107759790e-01  -4.7532437518736509e-05  5.4278221051615123e+00  2.4643456970206931e-03  3.0585568927315207e-03  8.9522511000291415e-04  1.4592892628248555e-03  -1.3122770703296991e+01  1.5191018408315658e-05  1.5883572732748468e-02  3.4555939495049197e-02  -1.2329458508762055e-01  1.3985282247248878e+00  3.1318563013403042e-06  -4.2548612989439294e-02  2.7627505250426175e-03  9.2967483514235418e-03  -7.3681820932828712e-01  -5.4112232192979233e-02  1.3595442037372027e-03  3.2139509926387812e-06  3.0834271686815099e-03  8.5103288515959528e-03  1.8939201395723161e-03  6.3015257593655814e-03  2.0640788613248058e-04  1.0350813615656470e-03  2.7714200898490315e-02  4.4301288758701193e-02  -2.5531491703362175e-06  5.0620532740940375e-06  -3.3114075394880098e+00  2.2011283060364841e-02  1.9426023954285776e-02  2.0717964705199630e-02  5.2820221852148748e-02  -8.6805610192395370e+00  -9.7296969837160319e+00  3.3730212623415632e+00  3.4154547390778927e+00  3.6928959890426052e-04  1.3305175882337276e-05  9.1502271547131561e-05  3.0351701238348940e-03  -2.7716245541741132e-02  1.5829235780814971e-03  1.0109662001751608e-03  5.7534443124783886e-03  6.1551791042462160e-03  -1.1133698555919700e-04  2.1765902480093860e-05  2.8897517281528335e-03  6.1588999357275957e-07  2.1563049752866706e-06  1.2827585867700537e+00  3.3347654239821109e-05  2.8867493221985659e-06  1.2074884201184320e-02  5.8445952373756965e-03  4.1028430249805297e-06  4.6509536209516354e-04  -5.4756393736819964e-01  -2.6276218406655605e-01  2.9897110168460673e-04  2.8129511492608126e-03  1.1098045591253715e-02  2.9113415576558223e-05  1.5814367858468337e-03  1.4835598464381188e-03  2.4743165866030576e-03  -1.0027705837743841e-02  8.5561331898101141e-05  2.1256075113370542e-06  8.6505447468598964e-03  2.4083127867752636e-02  8.5709564022731538e-04  6.3686761757228590e-04  -4.6117515068673596e-03  -2.9992256991357737e-04  -1.6245764925869359e-04  -2.8677652279146266e-04  7.4794314660081834e-04  3.9665796127837719e-06  4.1156172675317387e-05  5.2695873096805950e-05  3.2452132689238476e-05  -5.0418375114977811e+00  7.5142984413658773e+00  2.6895443656779414e-04  1.3114888809526013e-04  -6.0349187037488315e-05  2.5213093877411252e-06  3.9856664509099353e-07  1.5660984497293170e-05  -1.1431093620377943e+01  -6.8274772757848217e+00  -4.8766703817771555e+00  1.7809940533034655e-04  1.5243247197367935e-03  -1.2137051145929461e-02  9.1828474344262789e-04  -5.6080993633009085e-02  1.0385047851582390e-03  -9.3603570340887246e-02  -7.6775804612336501e-03  1.1041149516431328e-03  1.2858367002389234e-05  3.8430431335178157e-03  4.4079859950001184e-03  1.5422435802063081e+00  2.8057773608169310e+00  8.0205768717328957e-06  9.0191087792498963e-06  5.9484862687544339e-07  -2.0962327014821835e-01  4.0551125388332959e-01  2.5691519573381384e-05  4.2755247504741049e-03  2.6137725964115502e-03  1.6072803183470841e-03  4.7422889602829815e-03  1.5890853679673504e-03  6.3264599007771417e-03  3.3479514627686814e-06  2.0752758209817034e-06  4.4608066562248112e-06  3.1615795807221792e-05  4.0431903899085754e-03  6.3419593236399333e-05  1.3217846500336505e-06  7.4121210521310078e-05  2.6061247725449255e-01  1.9259385600205127e-03  -3.4521542124389066e+00  5.5384296441474403e-03  2.6246142782186577e-03  2.4847485444073271e-03  -6.8522463908056929e-04  4.6441671709452417e-02  3.1839529893798192e-04  1.5310181651577754e-02  -6.6593876555981202e-02  -3.1535264353300108e-01  -1.1038234879935594e+01  -2.3059557023316311e+00  -9.6974785727474586e+00  3.7083892656954397e-07  4.8924190719425171e-05  2.3445896510443250e-06  -3.2658698696789856e-05  -9.8784522645841896e-05  -7.3457794347373128e-05  4.6913998088311365e-01  1.0274058088920903e-04  -2.6978954506754416e-02  7.2205811242465134e-06  4.8074054819883272e-01  -1.4065679201099541e-04  -2.2014576370741300e-02  -6.3448346302994521e-02  -2.5435585172702729e-04  -5.3748820226705138e+00  4.0753684880501325e-06  -1.3381629065412811e+01  -9.7615443970067139e-01  -3.2773405272027613e-05  7.1253244006463743e-03  -9.8565195375270812e-03  1.5737415645670722e-03  -5.7030135811089296e-02  4.8922513630822970e-05  -1.0176866094502166e+00  4.2506014807317857e-03  1.0455952928526511e-04  1.5575767688747654e-05  5.7551532388949644e-06  3.5986515921846906e-06  -1.2982055838121704e+01  -8.0600404851887131e+00  -8.507993006802