<?xml version="1.0"?>
<VTKFile type="UnstructuredGrid"  version="0.1"  >
<UnstructuredGrid>
<Piece  NumberOfPoints="4073" NumberOfCells="7430">
<Points>
<DataArray  type="Float64"  NumberOfComponents="3"  format="ascii">-20 2.5 0  -20 0 0  -1 0 0  -0.9996988186962042 0.02454122852291233 0  -0.9987954562051724 0.04906767432741797 0  -0.9972904566786902 0.07356456359966773 0  -0.9951847266721968 0.09801714032956083 0  -0.99247953459871 0.1224106751992163 0  -0.989176509964781 0.1467304744553618 0  -0.9852776423889412 0.1709618887603012 0  -0.9807852804032304 0.1950903220161286 0  -0.9757021300385285 0.21910124015687 0  -0.970031253194544 0.2429801799032641 0  -0.9637760657954398 0.2667127574748985 0  -0.9569403357322088 0.2902846772544624 0  -0.9495281805930367 0.3136817403988914 0  -0.9415440651830207 0.3368898533922203 0  -0.9329927988347388 0.3598950365349883 0  -0.9238795325112867 0.3826834323650899 0  -0.9142097557035307 0.4052413140049899 0  -0.9039892931234433 0.427555093430282 0  -0.8932243011955152 0.4496113296546069 0  -0.8819212643483549 0.4713967368259979 0  -0.8700869911087113 0.4928981922297841 0  -0.857728610000272 0.5141027441932218 0  -0.8448535652497071 0.5349976198870972 0  -0.8314696123025453 0.5555702330196022 0  -0.8175848131515836 0.5758081914178454 0  -0.8032075314806448 0.5956993044924335 0  -0.7883464276266062 0.6152315905806269 0  -0.773010453362737 0.6343932841636455 0  -0.7572088465064846 0.6531728429537766 0  -0.7409511253549589 0.6715589548470186 0  -0.7242470829514668 0.6895405447370671 0  -0.7071067811865475 0.7071067811865476 0  -0.6895405447370669 0.7242470829514669 0  -0.6715589548470184 0.740951125354959 0  -0.6531728429537765 0.7572088465064847 0  -0.6343932841636454 0.7730104533627371 0  -0.6152315905806267 0.7883464276266063 0  -0.5956993044924334 0.8032075314806449 0  -0.5758081914178453 0.8175848131515837 0  -0.555570233019602 0.8314696123025455 0  -0.534997619887097 0.8448535652497072 0  -0.5141027441932217 0.8577286100002721 0  -0.492898192229784 0.8700869911087115 0  -0.4713967368259977 0.881921264348355 0  -0.4496113296546067 0.8932243011955152 0  -0.4275550934302819 0.9039892931234434 0  -0.4052413140049897 0.9142097557035307 0  -0.3826834323650897 0.9238795325112867 0  -0.3598950365349882 0.9329927988347388 0  -0.3368898533922199 0.9415440651830208 0  -0.3136817403988914 0.9495281805930367 0  -0.2902846772544622 0.9569403357322089 0  -0.2667127574748983 0.9637760657954398 0  -0.2429801799032639 0.970031253194544 0  -0.2191012401568697 0.9757021300385286 0  -0.1950903220161282 0.9807852804032304 0  -0.1709618887603012 0.9852776423889412 0  -0.1467304744553616 0.989176509964781 0  -0.1224106751992162 0.99247953459871 0  -0.09801714032956065 0.9951847266721969 0  -0.07356456359966733 0.9972904566786902 0  -0.04906767432741801 0.9987954562051724 0  -0.02454122852291214 0.9996988186962042 0  6.123233995736766e-17 1 0  0.02454122852291226 0.9996988186962042 0  0.04906767432741813 0.9987954562051724 0  0.07356456359966745 0.9972904566786902 0  0.09801714032956077 0.9951847266721968 0  0.1224106751992163 0.99247953459871 0  0.1467304744553617 0.989176509964781 0  0.1709618887603014 0.9852776423889412 0  0.1950903220161283 0.9807852804032304 0  0.2191012401568698 0.9757021300385286 0  0.242980179903264 0.970031253194544 0  0.2667127574748984 0.9637760657954398 0  0.2902846772544623 0.9569403357322089 0  0.3136817403988916 0.9495281805930367 0  0.3368898533922201 0.9415440651830208 0  0.3598950365349883 0.9329927988347388 0  0.3826834323650898 0.9238795325112867 0  0.4052413140049899 0.9142097557035307 0  0.4275550934302822 0.9039892931234433 0  0.4496113296546066 0.8932243011955153 0  0.4713967368259978 0.8819212643483549 0  0.4928981922297841 0.8700869911087113 0  0.5141027441932217 0.8577286100002721 0  0.5349976198870973 0.844853565249707 0  0.5555702330196023 0.8314696123025452 0  0.5758081914178453 0.8175848131515837 0  0.5956993044924335 0.8032075314806448 0  0.6152315905806268 0.7883464276266062 0  0.6343932841636455 0.773010453362737 0  0.6531728429537768 0.7572088465064845 0  0.6715589548470183 0.7409511253549591 0  0.6895405447370669 0.7242470829514669 0  0.7071067811865476 0.7071067811865475 0  0.724247082951467 0.6895405447370668 0  0.7409511253549591 0.6715589548470183 0  0.7572088465064846 0.6531728429537768 0  0.773010453362737 0.6343932841636455 0  0.7883464276266063 0.6152315905806268 0  0.8032075314806449 0.5956993044924334 0  0.8175848131515837 0.5758081914178453 0  0.8314696123025452 0.5555702330196022 0  0.8448535652497071 0.5349976198870972 0  0.8577286100002721 0.5141027441932217 0  0.8700869911087115 0.492898192229784 0  0.881921264348355 0.4713967368259976 0  0.8932243011955153 0.4496113296546065 0  0.9039892931234433 0.4275550934302821 0  0.9142097557035307 0.4052413140049899 0  0.9238795325112867 0.3826834323650898 0  0.932992798834739 0.3598950365349881 0  0.9415440651830208 0.3368898533922201 0  0.9495281805930367 0.3136817403988915 0  0.9569403357322088 0.2902846772544623 0  0.9637760657954398 0.2667127574748984 0  0.970031253194544 0.2429801799032639 0  0.9757021300385286 0.2191012401568698 0  0.9807852804032304 0.1950903220161282 0  0.9852776423889412 0.1709618887603012 0  0.989176509964781 0.1467304744553617 0  0.99247953459871 0.1224106751992162 0  0.9951847266721969 0.0980171403295606 0  0.9972904566786902 0.07356456359966743 0  0.9987954562051724 0.04906767432741801 0  0.9996988186962042 0.02454122852291229 0  1 0 0  20 0 0  20 2.5 0  0 2.5 0  -10 2.5 0  10 2.5 0  -10.5 0 0  -5 2.5 0  10.5 0 0  5 2.5 0  -5.75 0 0  5.75 0 0  -15.25 0 0  -15 2.5 0  15.25 0 0  15 2.5 0  -17.625 0 0  -17.5 2.5 0  17.5 2.5 0  17.625 0 0  12.5 2.5 0  12.875 0 0  -12.5 2.5 0  -12.875 0 0  -2.5 2.5 0  2.5 2.5 0  -8.125 0 0  -7.5 2.5 0  8.125 0 0  7.5 2.5 0  -3.375 0 0  3.375 0 0  -18.75 2.5 0  20 1.25 0  16.4375 1.19375 0  -16.25 2.5 0  13.75 2.5 0  -14.0625 0 0  -11.6875 0 0  11.6875 0 0  8.75 2.5 0  -8.75 2.5 0  6.9375 0 0  6.25 2.5 0  -6.25 2.5 0  -9.3125 0 0  -6.9375 0 0  9.3125 0 0  11.25 2.5 0  -11.25 2.5 0  3.75 2.5 0  4.5625 0 0  -4.5625 0 0  -3.75 2.5 0  -13.75 2.5 0  14.0625 0 0  -16.4375 0 0  -20 1.25 0  -18.8125 0 0  18.75 2.5 0  -18.21875 1.2359375 0  18.125 1.278125 0  -15.84375 1.2125 0  -14.375 1.30859375 0  14.65625 1.203125 0  2.1875 0 0  -2.1875 0 0  13.125 1.315625 0  3.125 1.315625 0  -3.125 1.315625 0  -12.28125 1.1890625 0  -5.15625 1.184375 0  11.09375 1.184375 0  5.625 1.325 0  -10.97262068800044 1.220713793599868 0  9.375 1.32734375 0  -6.875 1.32734375 0  -9.67626828410207 1.24449497187193 0  8.061334925608099 1.312208731402025 0  -8.188665074391901 1.312208731402025 0  -1.25 2.5 0  1.25 2.5 0  4.37465139623265 1.41327350462657 0  16.25 2.5 0  6.84375467392576 1.430449641528851 0  1.846573640185365 1.334702047669377 0  -1.846573640185365 1.334702047669377 0  -17.02955351149946 1.396129584721571 0  16.4375 0 0  18.8125 0 0  -13.31314667860176 1.511193493282891 0  -4.122005747945582 0.961844908681634 0  12.12799425205442 0.961844908681634 0  15.54930641305724 1.660405980876393 0  19.0578783583929 0.9559530595267438 0  8.71875 0.6864560603786576 0  -7.53125 0.6864560603786576 0  0.6257799091428734 1.819008129832855 0  -0.6257799091428727 1.819008129832856 0  6.291331569065717 0.7194652423646902 0  -19.11204717950418 0.9044926794710327 0  -4.488713231834613 1.772186102355655 0  11.76128676816539 1.772186102355655 0  -19.28185607205105 1.781856072051052 0  19.30868080343342 1.808680803433421 0  9.90625 0.6371857066656857 0  -6.34375 0.6371857066656857 0  3.796921710049233 0.7617406159238448 0  7.392020585015773 0.7480839107774819 0  -8.910372062800235 0.7929553447587234 0  10.2506781820361 1.451853913138859 0  -5.999321817963904 1.451853913138859 0  4.957643119381741 0.7716423099297361 0  17.29984375 0.8640625 0  15.41193625859067 0.8279888354083842 0  -13.72251704931534 0.7728002662082776 0  16.875 2.5 0  17.12178336313261 1.690954734835967 0  -11.64001625260176 1.74572103154608 0  2.477726735235857 0.7850262278604345 0  13.46875 0 0  13.765625 0.7802887470308788 0  -2.78125 0 0  -2.477726735235857 0.7850262278604346 0  -10.33383379274331 1.744431431923121 0  13.91957519050334 1.653419259628842 0  -15.08147780274903 0.8341506893754731 0  -15.14066649024666 1.671962869821843 0  -8.950686484882164 1.678622661163363 0  -17.55392917606836 0.794731598412167 0  -16.80247533599675 0.6688259240674158 0  -12.94289066923278 0.7766744225472476 0  -9.90625 0 0  -10.31601468672093 0.7730817089126454 0  -18.21875 0 0  -12.28125 0 0  -17.68515668569534 1.768907656575843 0  18.21875 0 0  10.85059123027421 1.880344717307101 0  -5.399408769725794 1.880344717307101 0  -3.738137326223278 1.749164834446819 0  -3.125 2.5 0  12.46235897590077 1.601301060091387 0  -11.09375 0 0  -11.61661448001209 0.7781698802173554 0  -15.625 2.5 0  1.59375 0 0  -1.764022608759088 0.6027229563180789 0  -8.125 2.5 0  8.125 2.5 0  8.713468311289519 1.727645658498745 0  9.375 2.5 0  -7.536531688710481 1.727645658498745 0  -6.875 2.5 0  14.375 2.5 0  17.78381794101733 1.874391370085592 0  18.59891476281433 1.80649740393129 0  -18.58835555265984 1.824268641341969 0  1.806126122135773 0.6510673837470153 0  -16.875 2.5 0  -16.36681393636619 1.755298393865037 0  -16.13072438662071 0.6014017614895231 0  -13.92460230791385 1.83195710210235 0  -14.40198779087891 0.6105385965811564 0  20 0.625 0  19.40625 0 0  14.6875 1.888836596385542 0  14.65625 0 0  12.78248197181444 0.6991460920542635 0  -3.467518028185561 0.6991460920542635 0  13.125 2.5 0  2.491957142932539 1.738660596534321 0  3.125 2.5 0  1.875 2.5 0  3.718973573227002 1.75927763286174 0  -2.491957142932539 1.738660596534321 0  -1.875 2.5 0  -9.375 2.5 0  6.2001972846108 1.772767401802766 0  5.625 2.5 0  5.027483518098582 1.760895488350309 0  5.625981449127788 0.6566963631252629 0  -12.30101114679273 1.859484693920165 0  9.742489932362783 1.884363450023167 0  -6.507510067637216 1.884363450023166 0  1.13492303295015 1.283502262067074
[...]
<PointData  Scalars="f_11901747"> 
<DataArray  type="Float64"  Name="f_11901747"  format="ascii">1.0078094644416622e+00  1.0058469013718991e+00  7.4131227604014054e+00  7.3959673912738992e+00  7.3518400992760498e+00  7.3478861503988107e+00  7.3476944444774155e+00  7.3728086059067826e+00  7.4135076642514184e+00  7.4445407848489156e+00  7.5444266192095073e+00  7.6097837652337343e+00  7.6526148984121312e+00  7.7351302172120997e+00  7.8271595429931633e+00  7.9216286058049379e+00  8.0246386696806322e+00  8.1262027680079534e+00  8.2347495608313395e+00  8.3720920664475535e+00  8.4703959703543905e+00  8.6213357333348011e+00  8.7591249277987107e+00  8.8825450732285987e+00  8.9697981033477827e+00  9.0614793011277204e+00  9.1244476490449458e+00  9.1680149288401562e+00  9.2034044934276391e+00  9.2209181214170943e+00  9.2190511580069696e+00  9.1934740872397906e+00  9.1806833653282229e+00  9.1676246301870812e+00  9.1461742886329684e+00  9.1256671828808305e+00  9.0739977257864268e+00  9.0007276908044940e+00  8.9340933040190098e+00  8.8887437997521435e+00  8.8266229144893327e+00  8.7245756929845566e+00  8.6040850117366965e+00  8.5214218473287033e+00  8.4229747590396027e+00  8.2509090998715209e+00  8.1852470935730022e+00  8.0672464453486121e+00  7.9340984135008501e+00  7.7557680816730121e+00  7.6281992782393440e+00  7.4694638442392645e+00  7.3126140563551001e+00  7.1648260515113922e+00  6.9769763701620047e+00  6.7901202975543118e+00  6.6064953668150670e+00  6.4698542474634113e+00  6.3307740200738065e+00  6.1578786651654163e+00  6.0157389853097856e+00  5.8315190874172442e+00  5.6440377651876688e+00  5.4856345455422213e+00  5.3289425382261930e+00  5.2119088232404973e+00  5.0455251957152454e+00  4.8982037450398543e+00  4.7714748000292619e+00  4.6112380633007346e+00  4.5181819465459094e+00  4.4156918482376550e+00  4.3232003401873182e+00  4.2173161532617547e+00  4.1161881919817267e+00  3.9801828168072242e+00  3.8628457122492672e+00  3.7062256983097726e+00  3.6251205986017769e+00  3.5187443161967069e+00  3.4086539818742705e+00  3.2758067264688786e+00  3.1077204801426359e+00  2.9555671507661510e+00  2.8629963295664358e+00  2.7278673636390316e+00  2.6241295590477529e+00  2.5023029021205638e+00  2.4463522578493198e+00  2.4116727270570006e+00  2.3126930954862641e+00  2.2483626023849199e+00  2.2246908256857818e+00  2.1648443057862590e+00  2.0475498268608341e+00  1.9752256227479721e+00  1.9110605330797623e+00  1.8082951598279178e+00  1.7562070693564884e+00  1.7109822776721062e+00  1.6588033120215588e+00  1.5998621702972509e+00  1.5645178731536451e+00  1.5586321688193909e+00  1.5472605984788994e+00  1.5195419132324932e+00  1.4899376926935359e+00  1.4614865400339285e+00  1.4373265037334957e+00  1.4109896216067608e+00  1.3873375373612116e+00  1.3578860419385907e+00  1.3378053584488707e+00  1.3194607363143318e+00  1.2923318362153258e+00  1.2665433137456077e+00  1.2345488350972198e+00  1.1999194359828598e+00  1.1677110517260785e+00  1.1281396483850359e+00  1.0903161382703668e+00  1.0421559396375815e+00  1.0046990271056619e+00  9.6240483886637651e-01  9.2230175639224066e-01  8.8412592037569449e-01  8.4947928555075236e-01  8.1892671101572978e-01  7.9715338505839306e-01  7.8408180018892404e-01  7.7735254637529549e-01  9.5206593705311260e-01  1.0602724992374504e+00  6.2341682770581732e+00  1.0225134386270658e+00  9.8724592835763603e-01  1.0046144750521631e+00  1.0063091478829580e+00  9.8029654373320829e-01  7.4595310803680670e-01  1.0016059572796505e+00  6.8528325377771870e-01  9.8198349424541043e-01  9.8781682170740726e-01  1.0271361470716214e+00  9.9459423664016833e-01  9.9563315944757014e-01  9.9935355079078669e-01  1.0068508209988962e+00  1.0280217035303199e+00  9.9435368333063123e-01  1.0025522322236349e+00  9.9387930741778807e-01  9.7164499257649817e-01  1.3131919615551013e+00  4.3078122490264992e+00  1.0508599929095872e+00  1.0026348268611138e+00  9.6614080790026702e-01  9.4904835197651760e-01  1.1164524380095191e+00  2.2521791994875643e-02  9.9807302310329038e-01  1.0169332634906043e+00  1.0008158969566348e+00  9.8913848755666223e-01  9.5353776567591819e-01  9.6149470573367424e-01  9.6166218169830242e-01  9.6936397093466720e-01  9.8256894229968805e-01  1.0074642044400235e+00  8.7954293075031831e-01  8.0674622209280067e-01  9.8766511949050462e-01  1.0085053168289373e+00  1.0415391623294012e+00  1.0008557755861656e+00  1.0120121491310095e+00  9.8544188493437823e-01  1.6194896956176819e+00  2.9714617288966827e-01  1.0380954424537701e+00  1.0997844346370604e+00  1.0054437413941115e+00  1.0244587034401322e+00  1.0239705454310759e+00  1.0056017657991345e+00  9.9588172966192934e-01  1.0104009331653900e+00  1.0060754296881971e+00  1.0048923118921560e+00  1.0047112237577336e+00  1.0063619979843654e+00  1.0088920806140740e+00  6.0424072551537633e-01  5.0695727961718813e+00  1.0035830930754293e+00  3.1812161197090316e+00  9.8595018313258609e-01  1.0053152667834118e+00  9.9590930889914187e-01  9.8950631206471518e-01  1.3079995586674065e+00  1.0010880995029907e+00  1.0077162374986910e+00  1.0018050248539832e+00  9.9928248190835056e-01  1.0290542725291845e+00  9.9602168725386075e-01  3.5160967360436763e+00  6.7884044046134671e+00  1.9084531842862411e+00  1.0105957488282276e+00  1.1196691780632608e+00  5.4490683095205599e+00  3.4757269827451434e+00  9.9705453213397310e-01  1.0027695623377657e+00  9.5874135146546058e-01  1.0012002145526875e+00  1.0068070125699125e+00  1.0106563073804680e+00  1.0039779856843765e+00  1.0020358002726437e+00  1.0044511047051401e+00  1.0125073613543702e+00  7.4662758746099867e+00  5.1108340582020135e+00  9.9668626003426319e-01  1.0056332828834726e+00  9.9230025639307495e-01  1.0066674441993186e+00  1.0041346052034517e+00  9.9276158185041785e-01  9.8974176138520531e-01  9.9231722064286931e-01  1.0715765925123473e+00  9.7431784955215961e-01  1.0131247361511726e+00  1.0111961978908184e+00  9.9677859724572504e-01  9.3131871829403878e-01  9.9224028628690630e-01  1.0014582638205913e+00  9.9690507923613103e-01  9.9424446448374737e-01  1.0012808319114725e+00  1.0013387563738156e+00  2.3971634304113647e+00  9.9754704948595063e-01  9.9803852514596469e-01  2.3788999506893491e+00  2.6485510102608933e+00  1.0035836415205688e+00  9.9756870863899283e-01  1.0038920952718235e+00  1.0050589386164204e+00  9.9562830457896478e-01  1.0083409799622545e+00  9.9099746197087846e-01  1.0029683953709878e+00  1.0019746558285296e+00  1.0064305648833913e+00  1.0036002512706066e+00  9.6352484331716892e-01  1.0024870766097345e+00  9.7701781699930312e-01  1.0007701642660694e+00  9.8396725501948401e-01  1.0175928571029624e+00  1.1080620067693792e+00  1.0001853339593159e+00  9.9794971622112782e-01  1.0058142507647092e+00  9.8661203599392377e-01  6.2638971274869393e-01  6.1697022335404768e+00  1.0229750369437958e+00  1.0124857155542493e+00  1.0281830629090665e+00  1.0181807641095684e+00  9.9218984459558923e-01  1.0103948007493553e+00  9.7757747285260921e-01  9.9505577620440133e-01  9.9304835379654832e-01  9.9611997943798258e-01  2.4197076615468109e+00  9.9446233215119362e-01  9.9784995935355192e-01  1.0024758465022401e+00  9.9090359031777220e-01  9.8952564684651256e-01  9.9793766356007230e-01  9.7164946536133867e-01  9.9902178757095372e-01  1.0247520069363332e+00  9.9501302869658093e-01  1.0303391590193494e+00  9.9011108836461270e-01  5.3880880049279112e+00  2.7605230067862343e+00  5.8432268206221325e+00  2.9085533506221108e+00  1.1589743921237914e+00  2.0301956639250167e+00  1.0095977761789514e+00  1.2613318792180754e+00  6.0354944518565778e-01  1.6939890424794233e+00  9.7674790706080361e-01  1.0009196153466540e+00  1.0101540239879434e+00  1.0069501856998453e+00  5.5438062562337356e+00  5.0833933697878626e+00  9.9502674349025788e-01  9.8958760774978838e-01  9.8722033678414389e-01  9.8099641173224927e-01  9.9881694410209199e-01  1.0558922753157325e+00  1.0074930460676368e+00  1.0096305361454805e+00  1.0051567943966861e+00  9.8640410116597799e-01  1.0937818587058721e+00  3.0995278182511341e+00  7.5478773148092682e+00  1.0018477554336134e+00  1.0083601612583142e+00  1.0977958172506870e+00  1.0059514366645319e+00  1.0063944554790760e+00  1.0138948431482844e+00  9.8549732009728885e-01  9.9809117451342222e-01  1.0021132729171647e+00  9.9869255960726011e-01  1.0045943525030814e+00  9.9978759844160281e-01  9.5085570003183029e-01  1.0417236708928619e+00  6.2066586557017276e+00  1.0149135130752196e+00  9.9219468403570654e-01  9.8964893442348245e-01  1.0053034417597597e+00  1.0037200462788856e+00  1.0188133453351464e+00  6.8965118381403805e+00  1.0165807825095121e+00  4.7682486087547780e+00  1.0060363813765529e+00  1.0028813599898183e+00  9.9380904141219040e-01  9.9616638150960157e-01  1.0079892699806219e+00  9.9878164976338613e-01  1.0011887023456580e+00  1.0115995306071097e+00  9.8817411719162851e-01  9.2668565615528020e-01  9.9910465849219865e-01  9.9079573823763245e-01  1.0010014735051436e+00  1.0015700769064342e+00  9.9871006362952641e-01  1.0013580526430905e+00  9.9399413150279337e-01  8.3656366355131873e+00  9.5144795660871462e-01  9.6700625710033128e-01  4.3617587212559661e-01  1.0196379086907303e+00  9.7766546499659135e-01  1.0930888262425895e-02  1.0089996944991029e+00  9.6867829925290361e-01  7.7704732500562057e-01  1.0498390572971978e+00  9.9639602911128256e-01  9.9766054713604524e-01  9.8617736354983343e-01  3.4542652020857828e-01  1.0253691881622951e+00  4.0307595711111723e+00  1.0012390427295332e+00  9.7552355289534964e-01  1.3801335369282801e+00  9.9993524606379447e-01  1.0250453892917248e+00  7.1495563778089621e-01  1.0154233006152082e+00  9.9821682109209986e-01  8.0331270477359717e-01  9.9810735283180119e-01  2.0410854034439510e+00  9.9671702529642547e-01  9.9362913932247965e-01  9.9740195966920564e-01  1.0024126308898105e+00  9.9951008933384733e-01  1.0086962597869682e+00  9.8333830759798546e-01  1.0898788977434510e+00  1.0044234620937493e+00  9.7659366817698068e-01  9.8697794284452578e-01  9.8911888692724204e-01  1.0500955768056499e+00  9.9546084016617631e-01  1.0020000898773098e+00  9.7946200217354351e-01  9.9648256997244511e-01  9.9504890721345030e-01  1.0057252525806970e+00  1.0010087347550700e+00  1.0989743636271458e+00  1.0119855872020769e+00  9.9678677133296612e-01  1.0194264623362532e+00  9.9243087885882253e-01  9.9961404783851082e-01  2.0647756308342151e+00  1.5031572201520249e+00  1.2722815329956614e+00  1.0069478122013074e+00  9.9699988296770392e-01  1.0001016128684657e+00  1.0121783615010835e+00  1.0086200990037490e+00  1.3349011436551863e+00  6.5794235638879526e+00  1.0021886378853175e+00  1.0078924746990552e+00  1.0024965870336948e+00  1.0052351818169307e+00  1.0032083042374469e+00  1.0029852303582849e+00  9.8751633991890442e-01  1.0011953167622816e+00  1.0021535365246752e+00  2.8718301527630792e+00  9.9523135958593045e-01  3.9674596183377751e+00  2.0775834483183351e+00  9.9936934676264300e-01  1.0023830940964751e+00  1.0052091809166750e+00  9.8400908281326271e-01  1.0152457384343303e+00  7.0054013982496688e+00  4.1250885998399411e+00  7.8555250631399964e+00  5.6416360792099978e+00  9.5874982254921837e-01  1.0109886042336953e+00  5.4899030400792004e+00  9.8370304759166249e-01  2.5043115580622479e+00  9.9303590609288617e-01  7.1567361268115848e+00  5.8851894114006109e+00  1.0087116016537077e+00  1.0011007105948000e+00  9.6432551793330834e-01  9.9760500683319353e-01  1.0118907094587573e+00  1.0564603623400126e+00  1.0006496174269699e+00  9.9788299437681416e-01  1.0074480899734961e+00  1.0037133022060380e+00  9.9667198491645814e-01  1.0381249934960293e+00  1.0649942956058529e+00  1.0081846730866291e+00  1.2092366917237758e+00  9.9833898793942788e-01  9.9705837505664796e-01  1.0175794469256541e+00  1.0307051043177011e+00  9.9418385071249760e-01  1.0070287179256106e+00  1.0026801637364171e+00  1.0369425710086884e+00  1.0045980119037199e+00  9.9312051333615570e-01  1.0073842795179002e+00  1.0343596476672654e+00  1.0009802607807901e+00  1.0353225532869350e+00  9.9716407445586097e-01  9.9924730037472342e-01  9.9791074907896582e-01  9.9785060345010534e-01  1.0100851105077575e+00  9.8760006767542441e-01  9.9791716502985783e-01  9.9566594652767115e-01  1.0018033833060815e+00  1.0028371345622473e+00  1.0078006254092986e+00  1.0071981110486272e+00  1.0121726571609988e+00  1.0014490249549077e+00  1.0142209560170181e+00  7.1280041254959781e-01  1.0053323495080360e+00  4.1134171236055828e+00  3.5913277874565379e+00  1.0044302880884670e+00  9.9271942777409372e-01  9.9363462548481518e-01  9.9759651079924150e-01  9.9641101377903729e-01  9.9300550063256610e-01  1.8681314409979421e+00  1.6637180440172962e-02  1.0070896709607757e+00  1.2416456844204864e+00  2.8786956784987955e-01  4.4020573587431731e+00  1.0150891006908318e+00  8.4632874421934634e+00  1.0025066713319233e+00  9.9779336451728140e-01  1.0270811918991940e+00  2.0700394694014643e+00  1.0016741770074205e+00  1.0005988563038579e+00  9.9139934719468514e-01  9.7099953144183271e-01  9.9339905291734631e-01  1.0065779035471762e+00  1.0004798121486107e+00  1.0012073481269070e+00  9.9886394214951668e-01  2.1913108314657763e+00  9.9657431098439953e-01  1.0115134694307240e+00  9.9992211514146956e-01  9.8260062854897945e-01  1.0061599547261906e+00  1.0004563157949387e+00  9.5152409087586332e-01  9.9806459030225314e-01  1.0025267681810910e+00  9.9761864680640622e-01  9.9062811299546538e-01  2.9738034800455657e+00  8.4824864632355768e-01  1.0245829396142130e+00  1.0242431904682672e+00  1.0224716793438133e+00  9.9991809664528120e-01  1.0037622876269516e+00  1.0005070878831259e+00  1.3046581951280758e+00  3.5310551747820340e+00  1.6458180663687985e+00  1.0053439195989353e+00  1.0115141592170120e+00  5.0275428052099729e+00  9.9819358052796880e-01  1.0029318812169590e+00  1.0001686987378620e+00  5.0650603331406119e+00  1.0056530209693335e+00  1.0019715797219937e+00  1.0091054884477668e+00  1.0032554268882021e+00  9.9662983769469404e-01  1.0045468871858552e+00  9.9308403390633226e-01  1.0094915729367451e+00  1.0050061018223375e+00  1.0037784023864256e+00  1.0128221306182230e+00  1.0027652250481369e+00  1.3521592554875517e+00  9.9829661433489081e-01  4.2571344934270533e-01  1.0028716239119300e+00  2.3421818164869510e+00  1.0091031624656948e+00  1.0021869558731675e+00  9.9907341373370684e-01  9.6363757717226806e-01  1.0203473062392556e+00  1.3029962180258379e+00  9.9903487253723644e-01  1.0531303152510030e+00  9.8370438256508996e-01  1.0047031435814360e+00  1.0011329051169227e+00  1.0054157193233868e+00  9.9513202625622443e-01  3.1849189964377471e+00  1.0019864206831433e+00  2.3578257998934293e+00  9.6505045057817751e-01  9.8784761361439299e-01  4.6984456264785921e+00  6.5687626402177210e+00  1.0238965521705299e+00  1.1350591535372418e+00  4.9932014584727487e+00  1.0766911454928771e+00  1.0067100785127490e+00  1.0050083159659640e+00  1.1401461089896703e+00  1.0002015521971537e+00  9.9577212625017164e-01  1.0019839248278966e+00  9.9404751878472353e-01  1.0029855956235199e+00  9.9321857950310533e-01  9.9784442445744204e-01  1.3448439875889400e+00  9.9898823771852041e-01  1.0590618483786016e+00  9.9680929394567963e-01  9.9113677318661841e-01  5.0775643573896172e+00  3.9190270632676083e+00  1.0212031902561634e+00  1.0155726176044817e+00  1.0026110724512978e+00  9.9922330795276870e-01  9.9457849532722087e-01  9.9266332762628651e-01  9.9387634068813480e-01  4.3958353725254984e+00  1.5561590590926269e+00  8.2896815121604628e-01  9.9738097468213527e-01  1.0088738489997400e+00  1.2818821266643032e+00  1.0079481579044249e+00  1.0031856300912334e+00  1.0056597836317236e+00  9.9768634139649914e-01  7.2801383271799738e+00  9.9963826973134084e-01  1.0139711664109639e+00  9.2554645949017578e-01  1.8475757179811556e+00  3.2596363046095223e-01  1.0083848111727185e+00  9.8490278254051478e-01  9.5069427992688404e-01  1.0091720227887437e+00  2.8878156779264450e+00  1.4676634499132442e+00  9.9381832582380614e-01  1.0067727928209140e+00  1.0059368811103704e+00  9.9927047905672606e-01  1.0018637697799724e+00  1.0120186504009441e+00  9.9416811430388785e-01  1.0130426328766065e+00  9.9770200382563223e-01  9.8351677188491926e-01  9.9858028555473299e-01  9.9222817890055381e-01  1.0732469580962123e+00  1.0655247802460124e+00  1.2799433026236553e+00  1.0041270543465128e+00  6.6899624304946359e+00  6.3891535743451673e+00  6.7789795277360936e+00  6.1534564247643331e-01  3.5025628972312668e+00  1.0029429092366733e+00  1.0278632339368292e+00  1.0055794382348784e+00  9.6399542323909126e-01  9.7377301717068609e-01  9.7921886370123068e-01  1.0007520276928712e+00  9.9006101582561357e-01  1.0054308391907913e+00  5.5671255248951184e+00  1.0089366996523914e+00  1.0020682732812141e+00  9.7424870502061811e-01  9.9811872114825562e-01  1.0025027712693142e+00  1.2875730467333588e-01  1.0124441429984008e+00  9.9422716039865322e-01  3.6223692308611080e+00  2.7684730743041750e+00  9.9958027024686524e-01  9.7130360485261291e-01  9.9214488310317439e-01  9.9673446523431597e-01  1.0468034362666694e+00  1.0483577389400227e+00  9.9985445475969825e-01  1.0021559321313240e+00  1.0632701422167066e+00  9.9467025856370550e-01  9.4114476717367512e-01  9.7763523475551495e-01  1.0140049380148826e+00  1.0138247649198049e+00  1.0274404909886488e+00  1.0442980132283310e+00  1.0743113325031861e+00  9.9738562709534062e-01  1.0141301181536266e+00  9.8897052294694410e-01  9.9282917924698966e-01  9.9626367943228544e-01  1.0085575251897780e+00  1.0125213269787272e+00  1.0108389220030274e+00  1.0056301001706913e+00  9.9524330310899134e-01  9.9692659873083544e-01  9.9981304540020088e-01  9.9573296948565582e-01  6.7337514083802521e+00  1.1967546185115328e+00  9.6815445046361726e-01  1.0041977211359199e+00  1.0062627224760270e+00  9.8258306412378948e-01  9.4101828023321865e-01  1.0010109299230934e+00  7.5236927908557769e+00  1.0030111981331842e+00  1.0073667728200042e+00  1.0004280669782524e+00  1.0020705361937774e+00  1.0439151356973875e+00  9.5389830568739009e-01  9.8818362058865650e-01  1.0026796039045480e+00  9.9605161889055960e-01  1.0003584841087712e+00  9.9801790457570883e-01  9.9542013477463354e-01  1.0181309754233552e+00  3.0002056569204094e-01  9.9605099061751168e-01  9.9797117596988960e-01  9.4809660743284241e-01  1.8735570578535719e+00  9.3501622517401939e-01  9.9026342099663889e-01  1.0056276232190977e+00  1.0016313131802677e+00  1.0004209071252042e+00  9.9388210581671510e-01  9.8766135328067373e-01  1.0064572323207159e+00  9.9382177627533319e-01  1.0017197031028946e+00  1.0141922338718345e+00  1.0033401792682000e+00  9.7065600288927956e-01  1.0151768588824925e+00  1.0038252262841436e+00  9.6830445043201263e-01  8.5979574878850573e-01  9.6793748119253220e-01  5.6302095585368646e+00  9.7822583805946861e-01  1.0031007267051255e+00  9.9766645140915122e-01  1.0374116358713890e+00  1.0508030882532322e+00  9.9975238974980074e-01  1.0016796475112626e+00  1.0072101074201472e+00  1.8812617576984738e+00  7.4695978595707384e+00  6.9231507556209966e+00  1.0416901768676010e+00  9.8605625083760928e-01  1.0206347137208536e+00  1.0008061524704168e+00  1.0263666686929371e+00  1.0190856871627243e+00  7.0393017255399659e+00  2.1204947829100793e+00  1.0033882851063625e+00  9.9958884450362628e-01  9.9649720742411130e-01  4.4067983911211689e-01  1.0093686958425454e+00  1.0093486349245804e+00  1.0047976123878897e+00  9.8849375655016225e-01  5.4961678569144841e+00  9.9283261774591891e-01  7.6879741512712059e+00  4.7730910766406076e+00  2.9590261197463730e+00  1.0025892790485982e+00  9.6483438212341233e-01  9.8873633072745148e-01  9.8087394211890522e-01  1.0329895679095245e+00  1.5225688198044057e-01  1.0008845112234874e+00  1.2898807589899668e+00  1.0081008634426027e+00  9.9416014396657182e-01  9.8915979792004782e-01  1.0123054842836234e+00  9.9892167143877453e-01  1.1606857309376915e+00  1.7140520222896720e+00  1.0234062678203262e+00  1.0028606472068817e+00  1.0072603748573321e+00  7.3830077452452167e+00  1.0019361675781786e+00  6.0955662689954435e+00  1.0208260960896913e+00  9.9983426472916670e-01  1.00000