<?xml version="1.0"?>
<VTKFile type="UnstructuredGrid"  version="0.1"  >
<UnstructuredGrid>
<Piece  NumberOfPoints="2912" NumberOfCells="5086">
<Points>
<DataArray  type="Float64"  NumberOfComponents="3"  format="ascii">-20 2.5 0  -20 0 0  -1 0 0  -0.9996988186962042 0.02454122852291233 0  -0.9987954562051724 0.04906767432741797 0  -0.9972904566786902 0.07356456359966773 0  -0.9951847266721968 0.09801714032956083 0  -0.99247953459871 0.1224106751992163 0  -0.989176509964781 0.1467304744553618 0  -0.9852776423889412 0.1709618887603012 0  -0.9807852804032304 0.1950903220161286 0  -0.9757021300385285 0.21910124015687 0  -0.970031253194544 0.2429801799032641 0  -0.9637760657954398 0.2667127574748985 0  -0.9569403357322088 0.2902846772544624 0  -0.9495281805930367 0.3136817403988914 0  -0.9415440651830207 0.3368898533922203 0  -0.9329927988347388 0.3598950365349883 0  -0.9238795325112867 0.3826834323650899 0  -0.9142097557035307 0.4052413140049899 0  -0.9039892931234433 0.427555093430282 0  -0.8932243011955152 0.4496113296546069 0  -0.8819212643483549 0.4713967368259979 0  -0.8700869911087113 0.4928981922297841 0  -0.857728610000272 0.5141027441932218 0  -0.8448535652497071 0.5349976198870972 0  -0.8314696123025453 0.5555702330196022 0  -0.8175848131515836 0.5758081914178454 0  -0.8032075314806448 0.5956993044924335 0  -0.7883464276266062 0.6152315905806269 0  -0.773010453362737 0.6343932841636455 0  -0.7572088465064846 0.6531728429537766 0  -0.7409511253549589 0.6715589548470186 0  -0.7242470829514668 0.6895405447370671 0  -0.7071067811865475 0.7071067811865476 0  -0.6895405447370669 0.7242470829514669 0  -0.6715589548470184 0.740951125354959 0  -0.6531728429537765 0.7572088465064847 0  -0.6343932841636454 0.7730104533627371 0  -0.6152315905806267 0.7883464276266063 0  -0.5956993044924334 0.8032075314806449 0  -0.5758081914178453 0.8175848131515837 0  -0.555570233019602 0.8314696123025455 0  -0.534997619887097 0.8448535652497072 0  -0.5141027441932217 0.8577286100002721 0  -0.492898192229784 0.8700869911087115 0  -0.4713967368259977 0.881921264348355 0  -0.4496113296546067 0.8932243011955152 0  -0.4275550934302819 0.9039892931234434 0  -0.4052413140049897 0.9142097557035307 0  -0.3826834323650897 0.9238795325112867 0  -0.3598950365349882 0.9329927988347388 0  -0.3368898533922199 0.9415440651830208 0  -0.3136817403988914 0.9495281805930367 0  -0.2902846772544622 0.9569403357322089 0  -0.2667127574748983 0.9637760657954398 0  -0.2429801799032639 0.970031253194544 0  -0.2191012401568697 0.9757021300385286 0  -0.1950903220161282 0.9807852804032304 0  -0.1709618887603012 0.9852776423889412 0  -0.1467304744553616 0.989176509964781 0  -0.1224106751992162 0.99247953459871 0  -0.09801714032956065 0.9951847266721969 0  -0.07356456359966733 0.9972904566786902 0  -0.04906767432741801 0.9987954562051724 0  -0.02454122852291214 0.9996988186962042 0  6.123233995736766e-17 1 0  0.02454122852291226 0.9996988186962042 0  0.04906767432741813 0.9987954562051724 0  0.07356456359966745 0.9972904566786902 0  0.09801714032956077 0.9951847266721968 0  0.1224106751992163 0.99247953459871 0  0.1467304744553617 0.989176509964781 0  0.1709618887603014 0.9852776423889412 0  0.1950903220161283 0.9807852804032304 0  0.2191012401568698 0.9757021300385286 0  0.242980179903264 0.970031253194544 0  0.2667127574748984 0.9637760657954398 0  0.2902846772544623 0.9569403357322089 0  0.3136817403988916 0.9495281805930367 0  0.3368898533922201 0.9415440651830208 0  0.3598950365349883 0.9329927988347388 0  0.3826834323650898 0.9238795325112867 0  0.4052413140049899 0.9142097557035307 0  0.4275550934302822 0.9039892931234433 0  0.4496113296546066 0.8932243011955153 0  0.4713967368259978 0.8819212643483549 0  0.4928981922297841 0.8700869911087113 0  0.5141027441932217 0.8577286100002721 0  0.5349976198870973 0.844853565249707 0  0.5555702330196023 0.8314696123025452 0  0.5758081914178453 0.8175848131515837 0  0.5956993044924335 0.8032075314806448 0  0.6152315905806268 0.7883464276266062 0  0.6343932841636455 0.773010453362737 0  0.6531728429537768 0.7572088465064845 0  0.6715589548470183 0.7409511253549591 0  0.6895405447370669 0.7242470829514669 0  0.7071067811865476 0.7071067811865475 0  0.724247082951467 0.6895405447370668 0  0.7409511253549591 0.6715589548470183 0  0.7572088465064846 0.6531728429537768 0  0.773010453362737 0.6343932841636455 0  0.7883464276266063 0.6152315905806268 0  0.8032075314806449 0.5956993044924334 0  0.8175848131515837 0.5758081914178453 0  0.8314696123025452 0.5555702330196022 0  0.8448535652497071 0.5349976198870972 0  0.8577286100002721 0.5141027441932217 0  0.8700869911087115 0.492898192229784 0  0.881921264348355 0.4713967368259976 0  0.8932243011955153 0.4496113296546065 0  0.9039892931234433 0.4275550934302821 0  0.9142097557035307 0.4052413140049899 0  0.9238795325112867 0.3826834323650898 0  0.932992798834739 0.3598950365349881 0  0.9415440651830208 0.3368898533922201 0  0.9495281805930367 0.3136817403988915 0  0.9569403357322088 0.2902846772544623 0  0.9637760657954398 0.2667127574748984 0  0.970031253194544 0.2429801799032639 0  0.9757021300385286 0.2191012401568698 0  0.9807852804032304 0.1950903220161282 0  0.9852776423889412 0.1709618887603012 0  0.989176509964781 0.1467304744553617 0  0.99247953459871 0.1224106751992162 0  0.9951847266721969 0.0980171403295606 0  0.9972904566786902 0.07356456359966743 0  0.9987954562051724 0.04906767432741801 0  0.9996988186962042 0.02454122852291229 0  1 0 0  20 0 0  20 2.5 0  0 2.5 0  -10 2.5 0  10 2.5 0  -10.5 0 0  -5 2.5 0  10.5 0 0  5 2.5 0  -5.75 0 0  5.75 0 0  -15.25 0 0  -15 2.5 0  15.25 0 0  15 2.5 0  -17.625 0 0  -17.5 2.5 0  17.5 2.5 0  17.625 0 0  12.5 2.5 0  12.875 0 0  -12.5 2.5 0  -12.875 0 0  -2.5 2.5 0  2.5 2.5 0  -8.125 0 0  -7.5 2.5 0  8.125 0 0  7.5 2.5 0  -3.375 0 0  3.375 0 0  -18.75 2.5 0  20 1.25 0  16.4375 1.19375 0  -16.25 2.5 0  13.75 2.5 0  -14.0625 0 0  -11.6875 0 0  11.6875 0 0  8.75 2.5 0  -8.75 2.5 0  6.9375 0 0  6.25 2.5 0  -6.25 2.5 0  -9.3125 0 0  -6.9375 0 0  9.3125 0 0  11.25 2.5 0  -11.25 2.5 0  3.75 2.5 0  4.5625 0 0  -4.5625 0 0  -3.75 2.5 0  -13.75 2.5 0  14.0625 0 0  -16.4375 0 0  -20 1.25 0  -18.8125 0 0  18.75 2.5 0  -18.21875 1.2359375 0  18.125 1.278125 0  -15.84375 1.2125 0  -14.375 1.30859375 0  14.65625 1.203125 0  2.1875 0 0  -2.1875 0 0  13.125 1.315625 0  3.125 1.315625 0  -3.125 1.315625 0  -12.28125 1.1890625 0  -5.15625 1.184375 0  11.09375 1.184375 0  5.625 1.325 0  -10.97262068800044 1.220713793599868 0  9.375 1.32734375 0  -6.875 1.32734375 0  -9.67626828410207 1.24449497187193 0  8.061334925608099 1.312208731402025 0  -8.188665074391901 1.312208731402025 0  -1.25 2.5 0  1.25 2.5 0  4.37465139623265 1.41327350462657 0  16.25 2.5 0  6.84375467392576 1.430449641528851 0  -1.846573640185365 1.334702047669377 0  1.846573640185365 1.334702047669377 0  -17.02955351149946 1.396129584721571 0  16.4375 0 0  18.8125 0 0  -13.31314667860176 1.511193493282891 0  -4.122005747945582 0.961844908681634 0  12.12799425205442 0.961844908681634 0  15.54930641305724 1.660405980876393 0  19.0578783583929 0.9559530595267438 0  8.71875 0.6864560603786576 0  -7.53125 0.6864560603786576 0  -0.6257799091428727 1.819008129832856 0  0.6257799091428734 1.819008129832855 0  6.291331569065717 0.7194652423646902 0  -19.11204717950418 0.9044926794710327 0  -4.488713231834613 1.772186102355655 0  11.76128676816539 1.772186102355655 0  -19.28185607205105 1.781856072051052 0  19.30868080343342 1.808680803433421 0  9.90625 0.6371857066656857 0  -6.34375 0.6371857066656857 0  3.796921710049233 0.7617406159238448 0  7.392020585015773 0.7480839107774819 0  -8.910372062800235 0.7929553447587234 0  10.2506781820361 1.451853913138859 0  -5.999321817963904 1.451853913138859 0  4.957643119381741 0.7716423099297361 0  17.29984375 0.8640625 0  15.41193625859067 0.8279888354083842 0  -13.72251704931534 0.7728002662082776 0  16.875 2.5 0  17.12178336313261 1.690954734835967 0  -11.64001625260176 1.74572103154608 0  2.477726735235857 0.7850262278604345 0  13.46875 0 0  13.765625 0.7802887470308788 0  -2.78125 0 0  -2.477726735235857 0.7850262278604346 0  -10.33383379274331 1.744431431923121 0  13.91957519050334 1.653419259628842 0  -15.08147780274903 0.8341506893754731 0  -15.14066649024666 1.671962869821843 0  -8.950686484882164 1.678622661163363 0  -17.55392917606836 0.794731598412167 0  -16.80247533599675 0.6688259240674158 0  -12.94289066923278 0.7766744225472476 0  -9.90625 0 0  -10.31601468672093 0.7730817089126454 0  -18.21875 0 0  -12.28125 0 0  -17.68515668569534 1.768907656575843 0  18.21875 0 0  10.85059123027421 1.880344717307101 0  -5.399408769725794 1.880344717307101 0  -3.738137326223278 1.749164834446819 0  -3.125 2.5 0  12.46235897590077 1.601301060091387 0  -11.09375 0 0  -11.61661448001209 0.7781698802173554 0  -15.625 2.5 0  -1.764022608759088 0.6027229563180789 0  1.59375 0 0  -8.125 2.5 0  8.125 2.5 0  8.713468311289519 1.727645658498745 0  9.375 2.5 0  -7.536531688710481 1.727645658498745 0  -6.875 2.5 0  14.375 2.5 0  17.78381794101733 1.874391370085592 0  18.59891476281433 1.80649740393129 0  -18.58835555265984 1.824268641341969 0  1.806126122135773 0.6510673837470153 0  -16.875 2.5 0  -16.36681393636619 1.755298393865037 0  -16.13072438662071 0.6014017614895231 0  -13.92460230791385 1.83195710210235 0  -14.40198779087891 0.6105385965811564 0  20 0.625 0  19.40625 0 0  14.6875 1.888836596385542 0  14.65625 0 0  12.78248197181444 0.6991460920542635 0  -3.467518028185561 0.6991460920542635 0  13.125 2.5 0  2.491957142932539 1.738660596534321 0  3.125 2.5 0  1.875 2.5 0  3.718973573227002 1.75927763286174 0  -2.491957142932539 1.738660596534321 0  -1.875 2.5 0  -9.375 2.5 0  6.2001972846108 1.772767401802766 0  5.625 2.5 0  5.027483518098582 1.760895488350309 0  5.625981449127788 0.6566963631252629 0  -12.30101114679273 1.859484693920165 0  9.742489932362783 1.884363450023167 0  -6.507510067637216 1.884363450023166 0  1.13492303295015 1.283502262067074
[...]
<PointData  Scalars="f_13526183"> 
<DataArray  type="Float64"  Name="f_13526183"  format="ascii">-3.0742745302851365e-01  -3.5455462452733820e-03  -3.8274997514653054e-02  -1.2355767589196813e-01  -2.2232333801204995e-01  -3.3466565840569973e-01  -4.5113017879905587e-01  -5.7443912071419168e-01  -7.1403823484940465e-01  -8.5560024178267791e-01  -9.8207062238323639e-01  -1.2294017864011004e+00  -1.3711857380244310e+00  -1.5547661733145317e+00  -1.7986813566588331e+00  -2.0234165037319722e+00  -2.2404677642801563e+00  -2.3985692671794197e+00  -2.5934587261359185e+00  -2.6780753426453310e+00  -2.8585455991173627e+00  -2.8835958722331632e+00  -2.8223574937701397e+00  -2.9294434560095950e+00  -2.7925900359841442e+00  -2.6827113859064626e+00  -2.4920030036583745e+00  -2.3037665278184365e+00  -2.0400936336261593e+00  -1.8200617545088020e+00  -1.5134544660909153e+00  -1.1815118933879711e+00  -7.5770659147627539e-01  -3.6313870816195543e-01  8.8400514267051797e-03  4.6147357028573738e-01  9.0981833397239809e-01  1.3257982781154030e+00  1.8290151698003796e+00  2.3064503749378100e+00  2.7720670506962701e+00  3.2580549684236075e+00  3.7833854176228607e+00  4.2766543700170114e+00  4.7751964323535390e+00  5.2516771156204829e+00  5.6877462941277548e+00  6.1823110529895198e+00  6.6342589446266009e+00  7.0959137825741667e+00  7.5282556177124604e+00  7.9195326964711334e+00  8.3076350792557498e+00  8.7028584433503529e+00  9.0562277308855421e+00  9.3916223727689818e+00  9.6917041622297120e+00  9.9601946141553981e+00  1.0225145404713416e+01  1.0465955608979920e+01  1.0658990233158304e+01  1.0850032513725649e+01  1.0989576981663845e+01  1.1121567236296709e+01  1.1206544254262958e+01  1.1271252257773018e+01  1.1296357340448091e+01  1.1294372368167540e+01  1.1287292259735064e+01  1.1232430953478623e+01  1.1146452764769379e+01  1.1043341667481570e+01  1.0907453347463667e+01  1.0703024295835299e+01  1.0516996740540446e+01  1.0297173321980317e+01  1.0050112301619968e+01  9.7180144670907307e+00  9.3821859659522389e+00  9.1112599303133646e+00  8.7461874848101093e+00  8.3287806724581550e+00  7.9565478507517673e+00  7.5663065043466604e+00  7.1636254236008661e+00  6.7291168903136152e+00  6.2616175202055251e+00  5.7394608524224724e+00  5.3074229984549506e+00  4.7967717844023463e+00  4.3383899520696216e+00  3.7281561663282914e+00  3.2818500911746691e+00  2.7953271501398476e+00  2.3209945971252353e+00  1.8010969119363520e+00  1.2656751965933359e+00  8.0908065212501545e-01  3.3890620579649638e-01  -1.2101590321110677e-01  -5.2025220034038189e-01  -9.5435020808085935e-01  -1.4294595327555197e+00  -1.8016286775911743e+00  -2.1858729593315305e+00  -2.5080936833448022e+00  -2.7366403121162386e+00  -2.9923379591671302e+00  -3.1529230669034289e+00  -3.3168984573188904e+00  -3.3345565556024339e+00  -3.2510991982430948e+00  -3.0609389519107881e+00  -2.9713564400319044e+00  -2.6577044405639150e+00  -2.1635845548573158e+00  -1.7655247768081777e+00  -1.3713467407360604e+00  -1.0485030812321057e+00  -7.3548663324824715e-01  -5.8015718097046309e-01  -4.1383701258425570e-01  -2.9541711245404362e-01  -2.0290180505078362e-01  -1.3848773307917664e-01  -1.0100905021320758e-01  -6.6098366366257780e-02  -4.4505667086150183e-02  -1.9589659370111444e-02  -9.8929894114528662e-03  -3.7979596493705218e-03  1.5067000419570227e-06  7.0405218354600510e-06  -9.5107545802351741e+00  4.3317806031641490e-07  1.6403729581419257e-04  6.9005569203584686e-06  -6.7842978962073149e-03  3.4360059839017587e-05  -6.8945395018272437e-03  5.0428238976514845e-03  6.4090169078562034e-02  4.5768752589608246e-04  -6.4831331637682597e-04  1.6164592787460120e-06  7.0412520148609485e-06  -6.3310707620311173e-03  -1.4156599075941334e-02  6.9895862252310217e-06  1.6792329962747474e-06  1.0991297162461008e-05  -3.3038289717013355e-07  4.6514032871576902e-06  1.3622734757769172e-04  -2.3135714359993884e-01  -1.8096600118411976e+00  1.4041346390417393e-04  -1.0857601433282022e-04  3.1255776373497997e-03  2.3588909039696133e-03  1.0725959789564196e-01  6.7149084682633187e-01  -6.1964616726264778e-02  4.2919697895422291e-06  4.1917767975125928e-06  -3.3206996887165919e-03  7.4352278342067492e-06  3.6495836208616923e-04  3.0854300154235240e-05  -1.9180683371276565e-06  6.5602588357646077e-04  -1.1240158107284390e-05  1.5080733631293341e-02  5.5218836436244645e-03  -9.2876712208807201e-04  1.9149710819291359e-05  8.5060767085907312e-04  4.6651118787393670e-04  3.2883031069080641e-05  4.5294517999336765e-06  -1.9043791560454185e-01  2.2330716989709126e-01  2.4727095811953783e-02  -3.8047464087236672e-02  -6.5392730167441185e-05  1.1964129770202825e-06  -8.7175395232371941e-04  -1.5528163886243340e-01  -1.9340278192579122e-02  7.0029500321804965e-06  -2.2348191784198751e-02  4.3107973539901344e-06  6.1324493104229403e-05  4.7174703006123026e-04  3.8846581674641400e-06  1.4626065195431475e+00  3.9396920367796939e-01  2.2974315726122214e-06  8.6314679692308349e-01  1.6977620582551314e-01  9.0625756849939594e-05  1.2970271843481545e-02  5.5693671691928425e-06  8.1706580757594544e-02  1.4867263707936264e-05  5.4628717904475386e-04  9.2920257886138749e-04  1.2405225853364118e-05  4.3200715986757513e-03  1.2093642208470636e-04  -3.0724778376886617e+00  -7.4714752813294281e+00  2.4793107429903358e-01  7.0076339990110400e-06  1.9518893031768524e-02  7.5466152673875031e-01  3.6272798534945041e+00  -4.5980702918110130e-03  1.6477308866583273e-06  1.6106025095819544e-06  2.0420342605337885e-04  5.8806253846277572e-02  -3.6357649469638702e-06  5.3724141592849696e-06  3.3745099738592922e-06  1.7142154157602553e-03  4.7449469776777124e-04  -1.1463004888636268e+00  -1.2357358213643046e+00  4.5406761455643811e-02  -4.6222636364209625e-02  9.2548133358871312e-03  8.7295187047401680e-06  -1.0160522621097334e-01  5.9082211253562848e-06  1.7571492203456607e-04  2.8244876333322626e-03  6.1376980960915517e-01  1.1377992262308163e-02  5.7309727862306535e-05  9.5063945717589982e-05  2.9755489345717830e-03  1.8860979005469442e-01  3.2971811334012671e-06  3.0759946164322301e-06  3.9232960236621357e-04  7.0163335874989168e-06  5.4896198229193459e-06  2.3613142297033347e-05  2.2642432801858541e+00  6.7452886124024167e-07  1.8517400856241934e-06  2.1543030508370978e-01  4.6781523789636731e-01  4.3611021341810473e-06  5.0500539558732834e-06  6.6377315610069800e-04  7.1224048869881674e-05  1.5974440043349632e-05  -7.6531219633254642e-03  -2.1926019339309436e-03  2.0137971916706722e-04  7.9755366331801185e-06  9.6423079134383160e-06  -1.1664199246620996e-02  6.7098299486342234e-05  -1.4380344005918000e-02  1.6524765940893743e-06  3.8799362149544306e-05  1.3421097788906451e-03  2.6549658255227617e-02  -1.0542778153834294e-01  3.5958896502103345e-06  1.3532327647687514e-05  4.1345190315326966e-05  -1.4653671385912964e-03  8.9537086751452988e-01  8.6075278108551878e-01  -4.0843004063570574e-05  1.2822857148314327e-03  1.2702243142788305e-03  3.5789262903034719e-04  1.2711286022757887e-04  -3.0569737881381453e-04  7.1364068705881175e-06  6.0050988739783730e-06  5.8235191900351897e-06  -4.5350805139646400e-02  4.1922527673013672e+00  -6.5061524709507041e-03  -2.3761159961485068e-03  -1.2519181476958757e-04  1.3554272315819844e-04  5.6867008935921595e-04  2.5890339570578379e-06  1.5344046920536870e-06  5.9713505887719028e-06  1.4467554714314892e-06  -1.1173779179621146e-06  1.3930072144874001e-01  8.3827249357301591e-06  3.8787966920620615e-01  -5.4115862234572365e-01  -4.7118255927123753e+00  1.8371604545328865e-01  1.7303678744621759e-01  -5.1107042204403852e-01  -3.2967229812768035e-06  2.6919095449822981e-02  5.0146663607036918e-03  7.7715900505964983e-02  9.2723392207079577e-02  4.1967060901071397e-05  2.4387833784030277e-04  2.7243899655256731e-04  6.0381537213379373e+00  2.0694318933702314e+00  -5.6386835662886466e-06  2.7259460573029502e-02  2.5791696443671560e-05  7.6499021786046589e-03  5.8772816379595992e-06  1.1581130930744654e+00  1.6414696461507747e-06  2.5625291112342803e-06  1.7547127273774793e-04  4.4618566657030744e-03  6.7965936448924095e-03  -1.1828913460870656e-01  -1.2113443246772202e+00  8.1636121654217488e-06  -1.7137745779014817e-06  4.9184567638186710e-02  2.5005938903527417e-06  1.9112743262493967e-05  2.6727625334087734e-06  -2.7406225956062132e-02  -7.1716987773323761e-06  -2.1132252732382770e-02  -2.4749017970203270e-02  -7.7582527737878076e-02  -2.4225034840108200e-04  4.0240164671261243e-03  -5.5019989094404101e-02  -2.6073957490300752e+00  2.1344798785462275e-06  7.0313315265695544e-06  4.9691658521913939e-06  -1.2782423574885562e-01  1.6492244528419500e-05  -1.7281515764765915e-02  -9.1812851604741930e+00  -7.1993299770334458e+00  7.0245087824474665e-06  -2.3102743236118406e-01  6.0822775014958300e-06  7.0933860198478232e-06  7.2203126653160005e-05  -2.3871710421689324e-03  -8.1757274311666632e-04  1.6443538046636878e-05  2.4233798825200054e-06  1.1428570792864252e-02  3.5422357925005812e-06  2.2967485314140898e-06  2.3878396133011035e-05  1.0857269086828148e-05  2.2430556765868320e-03  9.9994819201686702e-05  1.1758356354446540e-03  5.9472958295480173e-04  5.1754625890546024e-01  4.8026853055477644e-04  2.3474434900720752e-04  1.1863647203032869e-01  5.3082521993488382e-05  7.0148479287613892e-03  3.8606390201300222e-01  2.0758472244711201e-03  1.4485190115950830e-04  3.2423714532095388e-02  3.5637199304554518e-04  1.2468872460020617e-03  -2.8338239740916529e-03  1.3095559838637006e-04  1.0926932865417078e+00  1.6542369333225773e-06  1.8701802504868408e-02  6.3104488401354693e-06  1.8056914691082424e-02  3.6406387009870429e-02  -1.4406640891620399e-03  2.5046074655561038e-06  3.3852931293142458e-01  4.6668460654071428e-04  -5.4147891388944660e-03  2.2016862199873234e-02  3.8682081087928600e-06  5.9118498896029922e-02  4.5207526845649971e-06  1.5473283155090784e-04  3.4521332591679082e-04  2.4459502072093669e-06  -5.6618948954995800e-05  1.0025485471793992e-04  4.8009342494205943e-05  9.0109981242446902e-03  -4.2786450298393348e-02  2.7053550195200688e-02  -2.5861391907839398e-06  1.0023951510437372e-01  3.9768775429439081e-02  3.6036404495725304e-05  3.1076733279664266e-04  2.0660163100571999e-03  1.8256931839161935e-04  5.3285729880358872e-04  1.0283602701401732e-05  -1.0004564028780038e-02  8.9691299071880982e-03  2.4272860703861578e-06  4.5618672450030033e-02  -3.8217305208266872e-06  6.5614889141350289e-06  4.3080216446940277e-06  4.4498109634712985e-01  2.4314670947901698e-01  1.3732979507146534e-01  3.7515108105420461e-06  4.4270922114082717e-06  8.6518439699894665e-07  -9.6041186889598128e-03  -1.1957807464346369e-02  -1.4999015650141467e-01  -1.1202168529076115e+00  8.7252837969805061e-06  -1.1038692307855800e-05  4.7094986276887878e-05  4.7645580420700371e-06  4.9515759577517562e-06  2.9823969788336874e-06  6.4293419797413481e-06  -7.3153627235263239e-04  3.4260903499647821e-06  6.5874431437947081e+00  -4.5464973271993718e-07  1.6111741339419174e+00  4.9533694864139727e-01  -2.7136832428519678e-02  -7.7851785698156484e-02  -4.0514766444773635e-02  -4.5878602074650911e-03  6.5927280476477983e-06  1.8364600595771639e+00  -1.7215871019688991e+00  -3.3496889755710817e+00  3.0671511810819658e+00  4.8819622235725708e+00  2.0786669451261999e-04  5.8862084220419656e-04  2.1525888610945006e-06  -3.0026848911964728e-02  5.3498985156807155e-06  -1.8651854928733450e-07  4.2525758557086616e-06  2.2220667308044582e-06  3.4747255716423179e-08  1.3563698367681417e-06  1.2661391246555541e-02  6.6578102222321865e-04  9.8204032082021501e-04  -8.6080034601019706e-04  2.2415296748644952e-05  4.9090946790815659e-06  2.1805318294640789e-03  2.7380928814430694e-04  -8.1759711854110947e-02  8.4326402480245019e-03  5.3301436725172109e-05  -2.6654742138495450e-02  5.0579827001386309e-02  6.7155589532160276e-02  2.3447328712007000e-05  -8.5680253824000810e-02  6.4874084567042648e-06  -6.8068577128828342e-02  8.4636649155819598e-06  1.1403920331234305e-02  7.0818080555336502e-07  3.7610488197775967e-02  1.0036794603562299e-04  3.9519346776324607e-05  2.6676580403231739e-05  6.7215193315805181e-06  6.7095908452043575e-06  4.5254105345800663e-05  -5.8163562422171013e+00  -6.7456486839951539e+00  2.2628060845510134e-06  3.4139459911948700e-05  9.7700646557205822e-05  4.3748219925225616e-03  1.9721809779912583e-03  7.1053880114905887e-03  2.4377429063530956e-04  -2.7170366086332726e-01  -1.9415291820446787e-01  6.6599115115029583e-06  8.5315330377171820e-05  5.7124327956786071e-03  1.8162011903007764e-03  7.6748623882903799e-01  -1.1272387908027348e+00  1.1746039200655454e-02  1.9690209541793468e-02  9.7971677980013708e-06  3.7591148533932292e-04  6.3552264544137549e-05  4.3081141092418682e-03  7.7968611884828642e-01  5.8797701896122767e-01  -1.3815359663203380e-01  2.8341031813647372e-01  1.9882078018945798e-01  6.6187328392139470e-06  9.9921839216197650e-01  -1.5088069885704327e-02  -2.2639603028745853e-06  8.4604508346319593e-02  3.0146269896820760e-01  3.3337732128459911e-06  -4.0184424584820411e-03  1.5922283440262816e-06  9.0399962301967790e-04  5.2495566314252561e-04  6.2372811583117640e-04  4.5291997543206902e-04  9.1467400691312592e-06  1.7316317319003032e-05  -3.4110146611597986e-01  4.9624025035519235e-05  -1.7983640102523405e-06  1.8583064315838826e-05  7.2043491110178612e+00  2.8116035736037672e-04  1.5592330922145335e-03  5.0666403251501801e-04  3.3869408637150257e-04  2.8286909178339609e-04  2.0246406350822484e-06  -2.2279684933286165e-03  6.8156004267376780e-03  3.3786223449264141e-01  1.6616461429408367e+00  5.8367520766058531e-04  9.5005539651811727e-04  7.0319882871286001e-06  6.4434593606920998e-06  1.2471376196165689e-04  1.2149141430913349e-05  2.8573136579105468e-01  3.5391418747847503e+00  2.3161274370128729e-02  8.4490760136216216e-07  2.3455240772263006e+00  -2.1417073306689082e-02  -7.4059270828033164e-01  1.8937555727932844e-06  5.6611683507209536e-06  1.7550450800857447e-03  6.0948344400841414e-01  -1.5450810988100161e-01  6.6906913893118242e-04  -4.4538940928365590e-05  -1.0116847170342780e-02  -1.0709937218498758e-02  5.5377640667735016e-06  3.4990347973086416e-06  1.0816495922451766e-03  8.4742028976729015e-06  8.1529468844096418e-06  6.5506177813919683e-06  -3.5807721782152394e-04  1.9777504037115079e+00  1.4085534339068387e-06  1.2540020173826757e-01  2.9489924341099347e-05  1.5470223950819144e+00  8.9917007045193611e-05  9.4925249715402361e-06  -5.9989195416509666e-05  -4.8565329322024650e-07  1.6346456458609538e-02  4.2131887129604273e-01  -4.2699875615765902e-02  3.1068725387766337e-03  -2.0409805457808801e-02  -6.4996067153079030e-03  4.9207668168802056e-06  4.6937019239121799e-05  1.1793766176254093e-05  -1.3909970365722013e-01  1.5457247262144832e-05  1.4880161200398107e-01  7.1945681642235923e-03  1.1519457832076217e-03  6.1945147211595764e+00  3.2600094351473485e+00  7.8705084809869222e-02  2.7856122547488527e-01  2.0754804638223101e+00  1.1516368785335046e-01  1.7871727546954209e-06  5.4168942905979824e-06  1.6805726060840930e-02  6.6936672020351595e-05  1.4169893819854614e-04  1.4291281761265459e-04  3.2922467272513987e-06  5.0423104727523240e-04  5.4444821322990654e-06  3.3814005731000365e-06  1.2158551346861507e-02  4.0876512431737747e-04  2.3348800489567927e-03  -2.0834658006971346e-02  6.1293670836551229e-03  1.5153848179120684e+00  8.9218931712024541e-01  3.1871640523016102e-02  -1.6279965391599864e-03  -9.4198964675469587e-04  -4.2031185603289200e-03  -2.6871701550088612e-03  2.8855485320491130e-03  2.8849022718578995e-04  5.3970904947834208e-01  1.8867534976097855e-01  2.3331776355024866e-02  3.1283723105708712e-02  9.0280413690845113e-05  2.2301822172198196e+00  2.7550923696096589e-05  -8.1869836346513559e-03  -9.2556772634803106e-04  -3.5148258192788428e-03  1.9127663165735274e+00  4.0784156163753098e-06  8.6692504996758679e-02  3.1419830170379861e-03  1.8239075623334627e-02  4.4166483061245471e-01  2.2984736689339304e-06  7.9165169691028901e-03  1.4003178906886853e-05  -1.7129513148712496e-02  4.9970886862802755e-01  7.7352400605207552e-02  -2.8572396745326682e-02  4.8064237168350774e-06  6.2353949203929111e-05  -4.0367072842703577e-03  4.8221077448526099e-05  1.7526418875065944e-03  7.1887212986823344e-06  1.7255266304320890e-05  -5.3560086520396157e-03  1.2652498664400966e-01  4.0590206901056147e-06  3.0558649078699877e-06  6.3939674767672905e-01  1.1999828495588876e-02  5.9864593453799160e-03  5.0280995896773026e-02  1.4369662917293377e-02  2.1635435070894338e+00  9.4664621233285939e-01  1.2619951082067571e+00  7.7941762662064633e+00  3.3001627657492122e-06  1.5528621272230066e-06  5.3725276159880840e-06  1.5101505763887071e-05  7.8544075047115892e-03  -5.1088804776410585e-04  -1.3478725627946448e-04  2.4267680574835375e-04  3.4347629660167535e-04  1.1744319342726138e-05  8.7639038440529404e-06  5.4975033789665673e-04  6.9536569062117161e-06  6.6355899888622450e-06  3.0430981342392033e-01  3.3119799114075896e-06  5.8342722505361372e-06  -6.6597532540088031e-02  -2.2429896027288451e-03  3.2542625157369339e-06  -2.5247923821368683e-06  1.4246627574536458e-01  1.7860924197783534e-01  3.3108643501667349e-07  2.3595416438025195e-04  5.0908783580061769e-03  7.4976800135984470e-06  4.2769968439979077e-04  4.3262131097806481e-04  6.7660653348994704e-06  1.1898696103229732e-02  -2.0983835752823622e-05  1.9532970208872956e-06  -3.4554713243192377e-02  -4.9511472131436189e-02  -4.2455083537912736e-04  2.8524340587976591e-04  -1.9462325922064962e-02  2.9294269991534506e-04  -4.5766654523542370e-06  1.6170695506955766e-04  6.3035609457281648e-06  5.6175094357173730e-06  4.9312132771340752e-06  6.7198409017057653e-06  6.6364125704304877e-06  4.9876510882251091e-01  2.3770812818906810e+00  -8.8950929737175320e-07  -4.9408704285183921e-06  1.9723910113420466e-05  2.0701631322574046e-06  1.6407843882085257e-06  2.2630231976086723e-06  -5.6612061729438539e+00  -8.2863599266594257e+00  -4.1340060635931444e+00  -1.3173357401421143e-03  -3.0308387284740091e-06  2.1317882111786368e-02  -5.6932034956065354e-06  4.1460035007226705e-02  -3.7625319585510179e-06  2.7876883819217227e-02  -3.2066452301573511e-02  -1.3591957297345063e-02  5.8932503183655747e-06  -9.6207047400953918e-04  -2.4140543917233967e-04  8.2300802204183798e-01  8.9565808766645916e-01  4.9169842177275517e-06  2.9917246333798655e-06  1.4995890249499788e-06  1.3375180394702613e-01  7.4035968211969755e-02  -7.1913534606510329e-07  1.5422141028126611e-04  1.3043136501624593e-03  6.0016849221558588e-04  1.9707688721185278e-04  -4.1691296776497061e-04  3.9561053428896920e-04  2.0141130601614007e-06  1.6478338408859743e-06  1.9386567595822137e-06  7.8376556403554222e-06  1.8899073906967508e-04  -6.9665506513674617e-06  7.0165271338642376e-06  7.2063850710447122e-06  6.4208166237829198e-02  5.0953268242735609e-04  -4.7059336459808900e+00  -1.7100708858419447e-03  6.7542440086280526e-05  -3.3968589330838082e-04  1.5684024796882508e-04  3.5682242673932777e-03  9.3993344460533925e-06  -6.7678800460938104e-02  -1.0936178755774655e-01  -4.0753318091598552e-02  -4.5247808470069080e+00  -1.2074796255906475e+00  -2.9309180226799296e+00  1.6507551848158418e-06  4.6835972416046722e-06  1.8649674089433599e-06  1.3539753146421459e-05  2.1990691548329467e-05  3.3903574521857392e-05  1.0984663268699508e+00  1.1955478459480306e-05  -2.8479560232038247e-02  3.5758069166626616e-06  8.9600524733932443e-02  1.3090333225909307e-04  -2.1036447117392883e-02  -3.7524371011999451e-02  1.0080657657903042e-04  -1.6021769959798957e+00  4.6029658541030812e-06  5.6513378214610532e-01  4.8624643208660384e-01  1.6602241849385886e-04  1.3572516602228726e-04  2.6332008192441218e-03  -2.1984842250731439e-06  1.8107876448895603e-02  7.1651070777163421e-06  1.5767895790804751e-01  -7.7659051291285681e-03  -1.5317395541548085e-05  6.4903686936572531e-06  1.6242137807312915e-06  4.8381463173844586e-06  -9.4124469063359772e-01  -6.7784640756731891e+00  -1.9450878914159047e+00  -3.9