<?xml version="1.0"?>
<VTKFile type="UnstructuredGrid"  version="0.1"  >
<UnstructuredGrid>
<Piece  NumberOfPoints="2937" NumberOfCells="5112">
<Points>
<DataArray  type="Float64"  NumberOfComponents="3"  format="ascii">-20 2.5 0  -20 0 0  -1 0 0  -0.9996988186962042 0.02454122852291233 0  -0.9987954562051724 0.04906767432741797 0  -0.9972904566786902 0.07356456359966773 0  -0.9951847266721968 0.09801714032956083 0  -0.99247953459871 0.1224106751992163 0  -0.989176509964781 0.1467304744553618 0  -0.9852776423889412 0.1709618887603012 0  -0.9807852804032304 0.1950903220161286 0  -0.9757021300385285 0.21910124015687 0  -0.970031253194544 0.2429801799032641 0  -0.9637760657954398 0.2667127574748985 0  -0.9569403357322088 0.2902846772544624 0  -0.9495281805930367 0.3136817403988914 0  -0.9415440651830207 0.3368898533922203 0  -0.9329927988347388 0.3598950365349883 0  -0.9238795325112867 0.3826834323650899 0  -0.9142097557035307 0.4052413140049899 0  -0.9039892931234433 0.427555093430282 0  -0.8932243011955152 0.4496113296546069 0  -0.8819212643483549 0.4713967368259979 0  -0.8700869911087113 0.4928981922297841 0  -0.857728610000272 0.5141027441932218 0  -0.8448535652497071 0.5349976198870972 0  -0.8314696123025453 0.5555702330196022 0  -0.8175848131515836 0.5758081914178454 0  -0.8032075314806448 0.5956993044924335 0  -0.7883464276266062 0.6152315905806269 0  -0.773010453362737 0.6343932841636455 0  -0.7572088465064846 0.6531728429537766 0  -0.7409511253549589 0.6715589548470186 0  -0.7242470829514668 0.6895405447370671 0  -0.7071067811865475 0.7071067811865476 0  -0.6895405447370669 0.7242470829514669 0  -0.6715589548470184 0.740951125354959 0  -0.6531728429537765 0.7572088465064847 0  -0.6343932841636454 0.7730104533627371 0  -0.6152315905806267 0.7883464276266063 0  -0.5956993044924334 0.8032075314806449 0  -0.5758081914178453 0.8175848131515837 0  -0.555570233019602 0.8314696123025455 0  -0.534997619887097 0.8448535652497072 0  -0.5141027441932217 0.8577286100002721 0  -0.492898192229784 0.8700869911087115 0  -0.4713967368259977 0.881921264348355 0  -0.4496113296546067 0.8932243011955152 0  -0.4275550934302819 0.9039892931234434 0  -0.4052413140049897 0.9142097557035307 0  -0.3826834323650897 0.9238795325112867 0  -0.3598950365349882 0.9329927988347388 0  -0.3368898533922199 0.9415440651830208 0  -0.3136817403988914 0.9495281805930367 0  -0.2902846772544622 0.9569403357322089 0  -0.2667127574748983 0.9637760657954398 0  -0.2429801799032639 0.970031253194544 0  -0.2191012401568697 0.9757021300385286 0  -0.1950903220161282 0.9807852804032304 0  -0.1709618887603012 0.9852776423889412 0  -0.1467304744553616 0.989176509964781 0  -0.1224106751992162 0.99247953459871 0  -0.09801714032956065 0.9951847266721969 0  -0.07356456359966733 0.9972904566786902 0  -0.04906767432741801 0.9987954562051724 0  -0.02454122852291214 0.9996988186962042 0  6.123233995736766e-17 1 0  0.02454122852291226 0.9996988186962042 0  0.04906767432741813 0.9987954562051724 0  0.07356456359966745 0.9972904566786902 0  0.09801714032956077 0.9951847266721968 0  0.1224106751992163 0.99247953459871 0  0.1467304744553617 0.989176509964781 0  0.1709618887603014 0.9852776423889412 0  0.1950903220161283 0.9807852804032304 0  0.2191012401568698 0.9757021300385286 0  0.242980179903264 0.970031253194544 0  0.2667127574748984 0.9637760657954398 0  0.2902846772544623 0.9569403357322089 0  0.3136817403988916 0.9495281805930367 0  0.3368898533922201 0.9415440651830208 0  0.3598950365349883 0.9329927988347388 0  0.3826834323650898 0.9238795325112867 0  0.4052413140049899 0.9142097557035307 0  0.4275550934302822 0.9039892931234433 0  0.4496113296546066 0.8932243011955153 0  0.4713967368259978 0.8819212643483549 0  0.4928981922297841 0.8700869911087113 0  0.5141027441932217 0.8577286100002721 0  0.5349976198870973 0.844853565249707 0  0.5555702330196023 0.8314696123025452 0  0.5758081914178453 0.8175848131515837 0  0.5956993044924335 0.8032075314806448 0  0.6152315905806268 0.7883464276266062 0  0.6343932841636455 0.773010453362737 0  0.6531728429537768 0.7572088465064845 0  0.6715589548470183 0.7409511253549591 0  0.6895405447370669 0.7242470829514669 0  0.7071067811865476 0.7071067811865475 0  0.724247082951467 0.6895405447370668 0  0.7409511253549591 0.6715589548470183 0  0.7572088465064846 0.6531728429537768 0  0.773010453362737 0.6343932841636455 0  0.7883464276266063 0.6152315905806268 0  0.8032075314806449 0.5956993044924334 0  0.8175848131515837 0.5758081914178453 0  0.8314696123025452 0.5555702330196022 0  0.8448535652497071 0.5349976198870972 0  0.8577286100002721 0.5141027441932217 0  0.8700869911087115 0.492898192229784 0  0.881921264348355 0.4713967368259976 0  0.8932243011955153 0.4496113296546065 0  0.9039892931234433 0.4275550934302821 0  0.9142097557035307 0.4052413140049899 0  0.9238795325112867 0.3826834323650898 0  0.932992798834739 0.3598950365349881 0  0.9415440651830208 0.3368898533922201 0  0.9495281805930367 0.3136817403988915 0  0.9569403357322088 0.2902846772544623 0  0.9637760657954398 0.2667127574748984 0  0.970031253194544 0.2429801799032639 0  0.9757021300385286 0.2191012401568698 0  0.9807852804032304 0.1950903220161282 0  0.9852776423889412 0.1709618887603012 0  0.989176509964781 0.1467304744553617 0  0.99247953459871 0.1224106751992162 0  0.9951847266721969 0.0980171403295606 0  0.9972904566786902 0.07356456359966743 0  0.9987954562051724 0.04906767432741801 0  0.9996988186962042 0.02454122852291229 0  1 0 0  20 0 0  20 2.5 0  0 2.5 0  -10 2.5 0  10 2.5 0  -10.5 0 0  -5 2.5 0  10.5 0 0  5 2.5 0  -5.75 0 0  5.75 0 0  -15.25 0 0  -15 2.5 0  15.25 0 0  15 2.5 0  -17.625 0 0  -17.5 2.5 0  17.5 2.5 0  17.625 0 0  12.5 2.5 0  12.875 0 0  -12.5 2.5 0  -12.875 0 0  -2.5 2.5 0  2.5 2.5 0  -8.125 0 0  -7.5 2.5 0  8.125 0 0  7.5 2.5 0  -3.375 0 0  3.375 0 0  -18.75 2.5 0  20 1.25 0  16.4375 1.19375 0  -16.25 2.5 0  13.75 2.5 0  -14.0625 0 0  -11.6875 0 0  11.6875 0 0  8.75 2.5 0  -8.75 2.5 0  6.9375 0 0  6.25 2.5 0  -6.25 2.5 0  -9.3125 0 0  -6.9375 0 0  9.3125 0 0  11.25 2.5 0  -11.25 2.5 0  3.75 2.5 0  4.5625 0 0  -4.5625 0 0  -3.75 2.5 0  -13.75 2.5 0  14.0625 0 0  -16.4375 0 0  -20 1.25 0  -18.8125 0 0  18.75 2.5 0  -18.21875 1.2359375 0  18.125 1.278125 0  -15.84375 1.2125 0  -14.375 1.30859375 0  14.65625 1.203125 0  2.1875 0 0  -2.1875 0 0  13.125 1.315625 0  3.125 1.315625 0  -3.125 1.315625 0  -12.28125 1.1890625 0  -5.15625 1.184375 0  11.09375 1.184375 0  5.625 1.325 0  -10.97262068800044 1.220713793599868 0  9.375 1.32734375 0  -6.875 1.32734375 0  -9.67626828410207 1.24449497187193 0  8.061334925608099 1.312208731402025 0  -8.188665074391901 1.312208731402025 0  -1.25 2.5 0  1.25 2.5 0  4.37465139623265 1.41327350462657 0  16.25 2.5 0  6.84375467392576 1.430449641528851 0  -1.846573640185365 1.334702047669377 0  1.846573640185365 1.334702047669377 0  -17.02955351149946 1.396129584721571 0  16.4375 0 0  18.8125 0 0  -13.31314667860176 1.511193493282891 0  -4.122005747945582 0.961844908681634 0  12.12799425205442 0.961844908681634 0  15.54930641305724 1.660405980876393 0  19.0578783583929 0.9559530595267438 0  8.71875 0.6864560603786576 0  -7.53125 0.6864560603786576 0  -0.6257799091428727 1.819008129832856 0  0.6257799091428734 1.819008129832855 0  6.291331569065717 0.7194652423646902 0  -19.11204717950418 0.9044926794710327 0  -4.488713231834613 1.772186102355655 0  11.76128676816539 1.772186102355655 0  -19.28185607205105 1.781856072051052 0  19.30868080343342 1.808680803433421 0  9.90625 0.6371857066656857 0  -6.34375 0.6371857066656857 0  3.796921710049233 0.7617406159238448 0  7.392020585015773 0.7480839107774819 0  -8.910372062800235 0.7929553447587234 0  10.2506781820361 1.451853913138859 0  -5.999321817963904 1.451853913138859 0  4.957643119381741 0.7716423099297361 0  17.29984375 0.8640625 0  15.41193625859067 0.8279888354083842 0  -13.72251704931534 0.7728002662082776 0  16.875 2.5 0  17.12178336313261 1.690954734835967 0  -11.64001625260176 1.74572103154608 0  2.477726735235857 0.7850262278604345 0  13.46875 0 0  13.765625 0.7802887470308788 0  -2.78125 0 0  -2.477726735235857 0.7850262278604346 0  -10.33383379274331 1.744431431923121 0  13.91957519050334 1.653419259628842 0  -15.08147780274903 0.8341506893754731 0  -15.14066649024666 1.671962869821843 0  -8.950686484882164 1.678622661163363 0  -17.55392917606836 0.794731598412167 0  -16.80247533599675 0.6688259240674158 0  -12.94289066923278 0.7766744225472476 0  -9.90625 0 0  -10.31601468672093 0.7730817089126454 0  -18.21875 0 0  -12.28125 0 0  -17.68515668569534 1.768907656575843 0  18.21875 0 0  10.85059123027421 1.880344717307101 0  -5.399408769725794 1.880344717307101 0  -3.738137326223278 1.749164834446819 0  -3.125 2.5 0  12.46235897590077 1.601301060091387 0  -11.09375 0 0  -11.61661448001209 0.7781698802173554 0  -15.625 2.5 0  -1.764022608759088 0.6027229563180789 0  1.59375 0 0  -8.125 2.5 0  8.125 2.5 0  8.713468311289519 1.727645658498745 0  9.375 2.5 0  -7.536531688710481 1.727645658498745 0  -6.875 2.5 0  14.375 2.5 0  17.78381794101733 1.874391370085592 0  18.59891476281433 1.80649740393129 0  -18.58835555265984 1.824268641341969 0  1.806126122135773 0.6510673837470153 0  -16.875 2.5 0  -16.36681393636619 1.755298393865037 0  -16.13072438662071 0.6014017614895231 0  -13.92460230791385 1.83195710210235 0  -14.40198779087891 0.6105385965811564 0  20 0.625 0  19.40625 0 0  14.6875 1.888836596385542 0  14.65625 0 0  12.78248197181444 0.6991460920542635 0  -3.467518028185561 0.6991460920542635 0  13.125 2.5 0  2.491957142932539 1.738660596534321 0  3.125 2.5 0  1.875 2.5 0  3.718973573227002 1.75927763286174 0  -2.491957142932539 1.738660596534321 0  -1.875 2.5 0  -9.375 2.5 0  6.2001972846108 1.772767401802766 0  5.625 2.5 0  5.027483518098582 1.760895488350309 0  5.625981449127788 0.6566963631252629 0  -12.30101114679273 1.859484693920165 0  9.742489932362783 1.884363450023167 0  -6.507510067637216 1.884363450023166 0  1.13492303295015 1.283502262067074
[...]
<PointData  Scalars="f_4332858"> 
<DataArray  type="Float64"  Name="f_4332858"  format="ascii">1.1897795831158284e+00  9.9971232628652773e-01  9.0403048970031286e-01  9.7535816549563126e-01  9.9488527230585277e-01  9.9821996132176549e-01  1.0747261196977360e+00  1.1426781462892468e+00  1.2331899141879001e+00  1.2796200954844734e+00  1.4694234627694605e+00  1.5650456796035253e+00  1.6079051695511559e+00  1.7007334367518450e+00  1.7969852871009289e+00  1.8252183772025250e+00  1.8103685375606446e+00  1.7682879173370611e+00  1.7115738709494404e+00  1.6414316239378974e+00  1.5773496628409114e+00  1.4389900418190253e+00  1.2803409748501513e+00  1.2171801426698958e+00  1.0473969591102645e+00  9.3105307386657687e-01  7.8978722259487277e-01  6.7136145843614858e-01  5.3192125886503216e-01  4.7996512901239580e-01  3.8025024422681619e-01  3.0582603840849731e-01  2.3706370717948436e-01  2.1010835711609521e-01  1.8598249768086422e-01  1.8139420500743272e-01  2.2137308104976272e-01  2.6870658936108610e-01  3.4144019409448129e-01  4.6339646752844960e-01  5.8928348812438458e-01  7.4280954959783640e-01  9.3052199109002587e-01  1.1455280369298864e+00  1.3821263093014733e+00  1.6267243091156047e+00  1.9103281909598968e+00  2.2418544315567202e+00  2.5452801665797402e+00  2.9137087677280373e+00  3.2868558556559675e+00  3.6648397895128109e+00  4.0655552999904678e+00  4.5712472959981723e+00  5.0005737061780806e+00  5.4998017145417757e+00  5.9349756823033557e+00  6.4052079369602870e+00  7.0057059708581226e+00  7.4600643066610646e+00  7.9994660243623814e+00  8.6437892850609295e+00  9.1729273136770608e+00  9.7386152261387320e+00  1.0281353261860531e+01  1.0844119248303510e+01  1.1404541710216645e+01  1.1993604637708492e+01  1.2518882373976989e+01  1.3059913170239831e+01  1.3668691297282930e+01  1.4152747237899803e+01  1.4685522633961410e+01  1.5195060803823495e+01  1.5685220300695992e+01  1.6168039688350241e+01  1.6635917655697227e+01  1.7075773381799660e+01  1.7373749533297765e+01  1.7892016823208447e+01  1.8353799218074123e+01  1.8692863378384686e+01  1.9041962270448398e+01  1.9368559383016986e+01  1.9623903278612868e+01  1.9821247430461856e+01  2.0075116985051302e+01  2.0277495237950646e+01  2.0427209318486064e+01  2.0440347384163502e+01  2.0582960368393735e+01  2.0643787509347565e+01  2.0636369789149878e+01  2.0623297561408080e+01  2.0639421973683866e+01  2.0512247300336004e+01  2.0231116872413121e+01  2.0096401398365291e+01  1.9874555042452059e+01  1.9523378319867469e+01  1.9208850568252092e+01  1.8947071301599365e+01  1.8517523852214310e+01  1.7962861679407254e+01  1.7447952653051164e+01  1.6867578328325596e+01  1.6246116705044571e+01  1.5576716354550086e+01  1.4817517820471245e+01  1.3982931537720303e+01  1.3056597647937163e+01  1.2114396342643376e+01  1.1272722556782719e+01  1.0139548129682515e+01  9.2213509547976145e+00  8.1894719576236774e+00  6.9756968064554492e+00  5.1419951615403798e+00  3.9903513570522455e+00  2.9011994411698421e+00  2.3022947781456544e+00  1.7615358957224576e+00  1.3767334902063990e+00  1.1528222171212963e+00  1.0428885237214942e+00  1.0022715560856463e+00  9.7920701261683063e-01  9.7482119373780229e-01  9.8886446980386056e-01  9.8022321541034441e-01  9.8437824746789526e-01  1.0000001711357402e+00  1.0000001071754425e+00  7.3691681610515918e+00  1.0000231100764070e+00  1.0042585612172414e+00  1.0000489403678687e+00  1.0123915740471008e+00  1.0038511918923980e+00  1.1541811516268607e+00  9.9216308593700620e-01  1.3039528627100425e+00  1.0018964984413543e+00  1.0012024702974747e+00  1.0000115116488175e+00  1.0000229443577922e+00  1.0056906844203615e+00  1.0132510289395837e+00  1.0000007578314529e+00  1.0000003017565360e+00  1.0004180965322933e+00  1.0002727906217519e+00  1.0001198494010626e+00  1.0003820220130002e+00  1.3099756757981558e+00  1.8716373443708771e+00  9.9969380362964955e-01  1.0003255427749727e+00  1.0372199953555128e+00  1.0292654182800993e+00  8.8924195415687246e-01  3.1792427096568914e+00  1.0464448053146869e+00  1.0000000661938260e+00  1.0000030049274999e+00  1.0040141655802113e+00  1.0001072930737456e+00  1.0008780102685275e+00  1.0001529359732841e+00  1.0011016132369903e+00  1.0111989575525642e+00  1.0000544475988438e+00  1.1063279563842670e+00  1.0677292527384650e+00  1.0016364782638958e+00  9.9996040754276283e-01  9.9840670207948490e-01  1.0126213985896579e+00  1.0013524519022385e+00  1.0000431211995906e+00  1.3329426550221368e+00  1.8170003937898811e+00  9.6695190300970912e-01  1.0612769131845290e+00  1.0003626666979919e+00  1.0000614050090422e+00  1.0036316411047501e+00  1.0484788799515870e+00  1.0052803324758430e+00  1.0000001537929839e+00  1.0154620526144471e+00  1.0000002857372596e+00  1.0024394672741743e+00  1.0007647102281627e+00  1.0000339062143666e+00  6.3018539634131114e+00  7.7021533375927509e-01  1.0002172146759472e+00  2.1415250264930754e+00  1.0776048901091486e+00  1.0001537542553225e+00  1.0030498664862999e+00  1.0018733915363558e+00  1.1914826146885329e+00  1.0000523468874407e+00  1.0089557033569325e+00  1.0005491629633387e+00  1.0000258793196473e+00  1.0273353328768313e+00  1.0000859992085906e+00  3.4006510838013404e+00  4.6542824225719475e+00  1.4445763605056641e+00  1.0000044968015127e+00  1.0669216577954008e+00  1.4112664295049788e+00  3.6522474524988908e+00  1.0064558729373547e+00  1.0000018254238003e+00  1.0000001536390422e+00  1.0003025602135085e+00  9.9686776742029337e-01  1.0006678411407621e+00  1.0000113578841927e+00  1.0000001119987303e+00  1.0199068208103796e+00  9.9971053317637215e-01  3.6692569703836688e+00  2.7824343379772332e+00  1.1593158487760153e+00  1.0172709883363924e+00  1.0247115060340737e+00  1.0008892814280792e+00  1.0584902649013048e+00  1.0000001005658063e+00  1.0066679903786544e+00  9.9816343429535459e-01  2.1723191633442096e+00  1.0612039960006072e+00  9.9997798729369625e-01  1.0039470368021062e+00  1.0020376991485718e+00  1.4597042328511958e+00  1.0000006710549347e+00  1.0000107768663935e+00  1.0005784332303058e+00  1.0000018653348144e+00  1.0000012908969182e+00  1.0000650634879429e+00  4.3788392968597876e+00  1.0001318624635085e+00  1.0000957983746352e+00  8.3151851400844878e-01  1.0060848335305170e+00  1.0000290839455530e+00  1.0000867213176907e+00  1.0015055383796585e+00  1.0013069511975612e+00  1.0000537249584505e+00  1.0073300792509863e+00  1.0046406258397655e+00  1.0003256017407052e+00  1.0000111361897224e+00  1.0000361952840586e+00  1.0061695442874308e+00  1.0002382754137333e+00  1.0134252148158673e+00  1.0000001722906893e+00  1.0021068807663325e+00  1.0072239233094888e+00  1.0648598712478070e+00  1.1460688167271880e+00  1.0004497221721382e+00  1.0000927301522293e+00  1.0001148606897547e+00  1.0021526193763317e+00  1.0012200501607291e+00  7.2884740495357168e+00  1.0001373139008694e+00  1.0183495807954412e+00  1.0133371387021988e+00  1.0071245059784426e+00  1.0003473418537605e+00  1.0007113946440072e+00  1.0000517940779772e+00  1.0000005078299368e+00  1.0000001798098883e+00  1.0322981015635455e+00  7.7118151437955538e+00  1.0069606422396291e+00  1.0041602801587846e+00  1.0030742034118576e+00  1.0004313189710181e+00  1.0010031230663374e+00  1.0000001034166626e+00  1.0000001684764077e+00  1.0000354175616288e+00  1.0000269814821749e+00  1.0003078743985307e+00  9.6416477068008954e-01  1.0002120740049936e+00  1.8534259850805359e+00  1.4875116683316163e+00  2.9654219492555631e+00  1.4672881662319346e+00  1.2978491955646501e+00  1.5667447000332810e+00  1.0000317621061550e+00  1.0870489925835332e+00  1.1067644714644140e+00  1.1987661935405183e+00  1.2849117407680086e+00  1.0001049332907017e+00  1.0056449376417380e+00  1.0014185913747158e+00  5.3990674540076817e+00  2.1541476587084536e+00  1.0012513512740462e+00  9.8707005715221874e-01  1.0032988206130644e+00  9.9617054110618841e-01  1.0000045785477536e+00  3.1965085990113313e+00  1.0000049336228298e+00  1.0000034232592618e+00  9.9987122609293144e-01  1.0356755158236506e+00  1.0357761757065866e+00  1.9042582962000669e+00  1.9362758898505541e+00  1.0000387283157446e+00  1.0005674133118154e+00  9.3632551373306705e-01  1.0000296938035149e+00  1.0000008514758159e+00  1.0000002691964505e+00  1.0231814825050234e+00  1.0002061972571499e+00  1.0098540736123844e+00  1.0035521442455719e+00  1.0120611298294717e+00  1.0006591965999385e+00  1.0457452575744779e+00  1.2329256505558543e+00  3.6646990323125186e+00  1.0000274673684955e+00  1.0000003257091354e+00  1.0000673361357928e+00  1.0860913685273716e+00  1.0007475112792159e+00  1.0277915288122472e+00  6.4854346037506660e+00  6.0472703091444577e+00  1.0000106220861471e+00  1.1088841847187223e+00  1.0000000897181600e+00  1.0000001138243566e+00  1.0024594420491755e+00  1.0043522111904992e+00  1.0022785134637426e+00  1.0000756689679791e+00  1.0000012636577731e+00  9.8355699440257072e-01  1.0020893537972184e+00  1.0000220769192625e+00  1.0007610570784713e+00  1.0001163756550702e+00  1.0192470369667970e+00  1.0002284937250885e+00  9.9910161646666262e-01  1.0118129869356978e+00  5.7728845585163224e-01  1.0013335215179426e+00  1.0005788850844375e+00  1.4988201742371867e+00  9.9987785321749090e-01  1.0639329790635734e+00  2.3366582801302558e+00  9.9651109793704895e-01  1.0070898459054398e+00  1.1852567358346422e+00  9.9932930190544311e-01  1.0216603422058876e+00  1.0046962376753461e+00  1.0026126762379020e+00  4.6097986920919780e+00  1.0000006513294055e+00  1.5814630767017595e+00  1.0002509718706456e+00  1.1495692004973335e+00  1.1272452258527368e+00  1.0040944609726792e+00  1.0000001596806447e+00  1.8340235926990049e+00  1.0021790652826525e+00  1.0066340843261330e+00  1.1054136093502058e+00  1.0000060502412627e+00  1.2512828771052504e+00  1.0000006094067997e+00  1.0002208454964514e+00  1.0004709647234702e+00  1.0000498701294578e+00  1.0035033968492353e+00  1.0034172184967771e+00  1.0001679230310472e+00  1.0464071921262741e+00  1.0240629184796115e+00  1.0061128491933271e+00  1.0010845863555768e+00  1.0254756861512413e+00  1.1123288538180360e+00  1.0002778006022432e+00  1.0001238850679846e+00  1.0182621050124581e+00  1.0007012627084586e+00  1.0085807441285659e+00  1.0005639832382107e+00  1.0069829809779884e+00  1.0427685062855339e+00  1.0000001202147599e+00  9.6446393155381083e-01  1.0007525230034218e+00  1.0000155529850070e+00  1.0000171494892238e+00  1.7017849545496815e+00  9.1163173651846885e-01  1.2823235402112292e+00  1.0000001650554819e+00  1.0000000694157085e+00  1.0001758078126233e+00  1.0442821838736849e+00  1.0107359932678399e+00  1.4277618468563080e+00  1.8073649309346214e+00  1.0000367868739648e+00  1.0002096659258799e+00  1.0000993620173646e+00  1.0000001260897808e+00  1.0001506765211050e+00  1.0001217911003459e+00  1.0000620027423850e+00  1.0015973152855071e+00  1.0000697887968149e+00  1.0438444372607950e+01  1.0003970363579939e+00  2.7592340443793106e+00  1.2289300594669357e+00  1.0081277305012066e+00  1.0228040017162421e+00  1.0076194146941029e+00  1.0054623374992180e+00  1.0000028827770289e+00  1.2653138638284316e+00  3.2527419931878834e+00  2.6693319268084865e+00  3.2691929502640624e+00  4.3894788812209411e+00  1.0004466377146131e+00  1.0014133100192983e+00  1.0000062864194126e+00  1.2934711524061218e+00  1.0000024276986450e+00  1.0000396912927587e+00  1.0000013941098358e+00  1.0000003926277479e+00  1.0001993578938946e+00  1.0021683814617988e+00  9.8925491365803098e-01  1.0000405807622401e+00  1.0131971649067892e+00  1.0145055236357654e+00  1.0013033857567721e+00  1.0000512001420081e+00  1.0272295087060757e+00  9.9962045304325775e-01  1.0357843259547310e+00  1.0573621636629082e+00  1.0001853614924887e+00  1.0219940588101226e+00  1.2253823555483081e+00  1.1842406976782867e+00  1.0001135075911509e+00  1.0592718693248995e+00  1.0000008927536124e+00  1.2238420384072308e+00  1.0013759965575515e+00  1.0117263720951113e+00  1.0007078452267373e+00  1.0217013383037978e+00  9.9999488143981008e-01  9.9994053084884005e-01  1.0000125388655827e+00  1.0000001270401515e+00  1.0000069041445621e+00  1.0000330610269421e+00  5.3157447231379509e+00  4.9719263312387234e+00  1.0000001402550431e+00  1.0030013054936746e+00  1.0046208036171902e+00  9.9976688343976139e-01  1.0007322830641336e+00  1.0009098329376138e+00  1.0060377208868567e+00  1.1505514358305755e+00  1.1245968349033695e+00  1.0000001045476818e+00  9.9988964763409527e-01  1.0852778042059474e+00  1.0232813025994831e+00  1.1480903623060723e+00  1.6558283244099834e+00  1.0802530190293935e+00  1.0761248901188512e+00  1.0000188467403588e+00  1.0083832915456641e+00  1.0047301488730116e+00  9.9527466870983772e-01  2.1774653583708035e+00  2.6265257075654325e+00  1.0636931877600668e+00  1.5558690414768830e+00  1.6426576792401417e+00  1.0001096255392485e+00  7.0104310272293202e-01  1.0098833217556056e+00  1.0004649825373915e+00  9.2583262350660134e-01  1.4469303533315310e+00  1.0000000808593756e+00  1.0050160472016354e+00  1.0000433671733389e+00  1.0139750325807428e+00  1.0019734293351641e+00  1.0010532490933051e+00  1.0010337658790880e+00  1.0000477863193644e+00  1.0000533805213845e+00  1.4083110907671230e+00  1.0000772173744545e+00  1.0000604395416361e+00  1.0000328368729230e+00  6.6977379041817819e+00  1.0093060322227323e+00  9.9792325016959893e-01  1.0007233528017010e+00  1.0006906511396354e+00  1.0003845085599166e+00  1.0000119318957226e+00  1.0033405487390379e+00  1.0529488852321209e+00  8.6787014059043743e-01  5.2569654430859485e+00  9.9921744602109419e-01  1.0171349894714237e+00  1.0000002243307056e+00  1.0000002936728305e+00  1.0018358216523189e+00  1.0000213795304731e+00  1.0169221645715956e+00  4.9029396848942142e+00  1.1416220924896605e+00  1.0001218266808738e+00  2.7152390143742964e+00  1.0857341425703595e+00  1.6449278091938191e+00  1.0000252622698556e+00  1.0000287305928901e+00  9.9968917919094358e-01  8.5739587168019726e-01  1.0922811171852713e+00  1.0101957812167586e+00  1.0004449668485094e+00  1.0099834650326434e+00  1.0107417390884401e+00  1.0000203745687652e+00  1.0000004283171726e+00  1.0124616003134332e+00  1.0003849824306361e+00  1.0000370913785079e+00  1.0000016264643927e+00  1.0011003613231135e+00  9.8757141204167471e+00  1.0000713079529246e+00  1.4319003545675746e+00  1.0000799745107667e+00  3.1766311807597547e+00  1.0001944053529994e+00  1.0000531503555830e+00  1.0005499804327067e+00  1.0015419925754667e+00  9.7627702777420811e-01  1.7728710969103867e+00  1.0337219984829211e+00  1.0275577087250654e+00  1.0180091662799837e+00  1.0074572771679013e+00  1.0000064887840390e+00  1.0000951601609207e+00  1.0000493510300688e+00  1.4089439874895804e+00  1.0000714034626346e+00  1.3678607951039150e+00  1.0421610389483504e+00  1.0139639268099323e+00  6.2583620316319797e+00  2.9143199834293170e+00  9.6787426635958618e-01  1.1502081974201648e+00  2.8066883647596299e+00  1.2775554700302501e+00  1.0000001501303868e+00  1.0000000756621230e+00  1.0645515803356360e+00  1.0001432547235816e+00  1.0003298000376002e+00  1.0002288196255646e+00  1.0000002232466076e+00  1.0015359434766569e+00  1.0000003118551539e+00  1.0000209196980900e+00  1.0779459696891927e+00  1.0004239686173764e+00  1.0185120521157383e+00  1.0169513382350042e+00  1.0053938608169353e+00  1.6100013156520485e+00  1.9389015049549940e+00  1.1080197457375009e+00  1.0041149598188732e+00  1.0037624185430682e+00  1.0057206811165584e+00  1.0051070956669370e+00  1.0246672611582242e+00  9.9992070574168512e-01  1.8924760755648462e+00  1.3562031442425564e+00  1.1451713724419186e+00  1.1545874968745578e+00  1.0001494411211456e+00  6.5177160506549470e+00  1.0023458309288038e+00  1.0090459582370521e+00  1.0033257745167714e+00  1.0054397295045223e+00  2.7741010651410862e+00  1.0000105874860643e+00  1.0713340445200592e+00  1.0356949431792442e+00  1.1820108906498179e+00  2.1527215016279029e+00  1.0000006600316058e+00  9.8867378510454051e-01  1.0027913980173517e+00  1.0156043111167505e+00  1.7702926218270443e+00  1.1812473301799555e+00  1.0154249875115056e+00  1.0000001805622605e+00  1.0030003074531351e+00  1.0069823039844201e+00  1.0018439214570316e+00  1.0044143314972491e+00  1.0001698302061133e+00  1.0009239205529581e+00  1.0229611663964124e+00  1.1942690426444054e+00  1.0000297994081111e+00  1.0000022710632988e+00  2.7437451368752628e+00  1.0489818795122481e+00  1.0324309480117155e+00  1.1275809280479894e+00  1.0397426723162084e+00  1.7790164764607272e+00  1.9579701170761614e+00  4.1379068853660570e+00  1.0705689880999095e+01  1.0003048517955371e+00  1.0000170497666190e+00  1.0000885794207302e+00  1.0029644577321453e+00  9.9134543505326611e-01  1.0010331765216758e+00  1.0008776270333593e+00  1.0055959356707125e+00  1.0068587553103021e+00  9.9998901215894165e-01  1.0000292888819955e+00  1.0017865028473383e+00  1.0000005204230407e+00  1.0000001939290561e+00  2.0726669990069388e+00  1.0000330233450827e+00  1.0000001309982434e+00  1.0373191090035421e+00  1.0045099309533585e+00  1.0000011565018048e+00  1.0004583467999184e+00  9.0697734414285935e-01  1.0100011825564033e+00  1.0002732401385293e+00  1.0025631298863120e+00  1.0357325901390764e+00  1.0000345349995718e+00  1.0010741570767439e+00  1.0008832632758902e+00  1.0023488456367444e+00  9.9679911951295397e-01  1.0000825601625269e+00  1.0000002527695993e+00  1.0230644913116047e+00  1.0372454005235525e+00  1.0009224532427572e+00  1.0004648044677431e+00  1.0070169167174685e+00  1.0005374966313367e+00  1.0003671801242739e+00  1.0003360505623866e+00  1.0006332975336545e+00  1.0000007673899487e+00  1.0000302587627141e+00  1.0000429542361911e+00  1.0000247768819899e+00  7.0424507734077713e-01  8.3232570877206751e+00  1.0003065174168000e+00  1.0001543131690471e+00  1.0001282953317980e+00  1.0000001816741531e+00  1.0000001505293861e+00  1.0000262436904968e+00  3.9356241921207036e+00  5.4041130128373442e+00  4.5721607918908980e+00  1.0022332360695161e+00  1.0014447545822642e+00  9.9899858201984060e-01  1.0008925436636085e+00  9.8669683969197519e-01  1.0010926126535387e+00  9.7175804108271691e-01  1.0128980745021969e+00  1.0070558354819048e+00  1.0000077174707338e+00  1.0038213776515310e+00  1.0030805549724433e+00  2.6721048709117285e+00  3.4293588346149209e+00  1.0000040703602409e+00  1.0000065196117309e+00  1.0000001719718563e+00  1.2929682500162454e+00  1.3023960001298436e+00  1.0000299049347725e+00  1.0045747159868819e+00  1.0015725744329709e+00  1.0009748594797974e+00  1.0049154756413148e+00  1.0014322345525288e+00  1.0073124852441933e+00  1.0000019197642174e+00  1.0000028181818275e+00  1.0000039166205028e+00  1.0000310065926792e+00  1.0026267520309928e+00  1.0000409541273241e+00  1.0000012032112990e+00  1.0000713229509262e+00  1.2153394519922931e+00  1.0011761167715754e+00  4.5373824813804484e+00  1.0061948999423611e+00  1.0025318826812133e+00  1.0031529981265159e+00  9.9976390695951778e-01  1.0371406814267576e+00  1.0003075863811919e+00  1.0442653364863952e+00  1.0401639488749244e+00  1.5641117934009017e+00  2.9039628951037852e+00  2.5346908355943318e+00  2.2353187508010399e+00  1.0000004323439067e+00  1.0000535727248057e+00  1.0000001513983177e+00  1.0000933307014570e+00  9.9997283066671250e-01  9.9998582651383994e-01  2.6061647322794510e+00  1.0000751861525601e+00  1.0059563912561429e+00  1.0000038920292185e+00  1.3953214192399477e+00  1.0002077640502847e+00  1.0023763353175037e+00  1.0030698572398891e+00  1.0002349353716145e+00  1.8005168053919154e+00  1.0000010031664743e+00  2.1789433627460846e+00  1.6227886551008397e+00  9.9999233343164362e-01  1.0066014411846333e+00  9.9671066420529053e-01  1.0015979442242202e+00  9.8149365953283241e-01  1.0000389455967014e+00  8.5849617450865057e-01  1.0081956964668508e+00  1.0001185040651313e+00  1.0000107547900023e+00  1.0000074322863666e+00  1.0000004230490664e+00  3.1442241541432883e+00  5.4525802701373731e+00  3.8888322177448580e+00  1.3120673618672059e+00  1.0000011338499837e+00  1.0000918124796789e+00  1.0000044526751870e+00  7.5232454056710762e-01  1.0000004378461764e+00  1.8995381866565830e+00  1.0000001526339510e+00  1.0000001383699806e+00  1.0000332378486316e+00  1.0000256