<?xml version="1.0"?>
<VTKFile type="UnstructuredGrid"  version="0.1"  >
<UnstructuredGrid>
<Piece  NumberOfPoints="3160" NumberOfCells="5316">
<Points>
<DataArray  type="Float64"  NumberOfComponents="3"  format="ascii">1.25 0 0  1.249623523370255 0.03067653565364036 0  1.248494320256466 0.06133459290927252 0  1.246613070848363 0.09195570449958429 0  1.243980908340246 0.1225214254119508 0  1.240599418248387 0.1530133439990203 0  1.236470637455976 0.1834130930692022 0  1.231597052986177 0.2137023609503765 0  1.225981600504038 0.2438629025201603 0  1.219627662548161 0.2738765501960873 0  1.21253906649318 0.3037252248790798 0  1.2047200822443 0.333390946843623 0  1.196175419665261 0.3628558465680779 0  1.186910225741296 0.3921021754986144 0  1.176930081478776 0.4211123167402751 0  1.166240998543424 0.4498687956687352 0  1.154849415639108 0.4783542904563622 0  1.142762194629413 0.5065516425062373 0  1.129986616404304 0.5344438667878526 0  1.116530376494394 0.5620141620682582 0  1.102401580435444 0.5892459210324971 0  1.087608738885889 0.61612274028723 0  1.07216076250034 0.642628430241527 0  1.056066956562134 0.6687470248588714 0  1.039337015378182 0.6944627912745027 0  1.02198101643948 0.7197602392723067 0  1.004009414350806 0.7446241306155417 0  0.9854330345332579 0.7690394882257835 0  0.9662630667034212 0.7929916052045569 0  0.9465110581331058 0.8164660536922209 0  0.9261889066936989 0.8394486935587729 0  0.9053088536893338 0.8619256809213336 0  0.8838834764831844 0.8838834764831843 0  0.8619256809213337 0.9053088536893337 0  0.8394486935587729 0.9261889066936989 0  0.8164660536922209 0.9465110581331055 0  0.7929916052045569 0.9662630667034212 0  0.7690394882257835 0.9854330345332578 0  0.7446241306155419 1.004009414350806 0  0.7197602392723067 1.02198101643948 0  0.6944627912745028 1.039337015378182 0  0.6687470248588716 1.056066956562134 0  0.642628430241527 1.07216076250034 0  0.6161227402872301 1.087608738885889 0  0.5892459210324973 1.102401580435444 0  0.5620141620682583 1.116530376494394 0  0.5344438667878527 1.129986616404304 0  0.5065516425062373 1.142762194629413 0  0.4783542904563623 1.154849415639108 0  0.4498687956687353 1.166240998543424 0  0.4211123167402751 1.176930081478776 0  0.3921021754986145 1.186910225741296 0  0.3628558465680779 1.196175419665261 0  0.333390946843623 1.2047200822443 0  0.30372522487908 1.21253906649318 0  0.2738765501960872 1.219627662548161 0  0.2438629025201604 1.225981600504038 0  0.2137023609503767 1.231597052986177 0  0.1834130930692022 1.236470637455976 0  0.1530133439990203 1.240599418248387 0  0.122521425411951 1.243980908340246 0  0.09195570449958432 1.246613070848363 0  0.06133459290927266 1.248494320256466 0  0.03067653565364033 1.249623523370255 0  7.654042494670958e-17 1.25 0  -0.03067653565364018 1.249623523370255 0  -0.06133459290927251 1.248494320256466 0  -0.09195570449958416 1.246613070848363 0  -0.1225214254119508 1.243980908340246 0  -0.1530133439990202 1.240599418248387 0  -0.1834130930692021 1.236470637455976 0  -0.2137023609503766 1.231597052986177 0  -0.2438629025201602 1.225981600504038 0  -0.2738765501960871 1.219627662548161 0  -0.3037252248790798 1.21253906649318 0  -0.3333909468436229 1.2047200822443 0  -0.3628558465680777 1.196175419665261 0  -0.3921021754986143 1.186910225741296 0  -0.4211123167402749 1.176930081478776 0  -0.4498687956687352 1.166240998543424 0  -0.4783542904563621 1.154849415639108 0  -0.5065516425062372 1.142762194629413 0  -0.5344438667878524 1.129986616404304 0  -0.5620141620682584 1.116530376494394 0  -0.5892459210324972 1.102401580435444 0  -0.61612274028723 1.087608738885889 0  -0.642628430241527 1.07216076250034 0  -0.6687470248588713 1.056066956562134 0  -0.6944627912745025 1.039337015378182 0  -0.7197602392723067 1.02198101643948 0  -0.7446241306155417 1.004009414350806 0  -0.7690394882257834 0.9854330345332579 0  -0.7929916052045567 0.9662630667034213 0  -0.8164660536922207 0.9465110581331059 0  -0.8394486935587731 0.9261889066936988 0  -0.8619256809213337 0.9053088536893337 0  -0.8838834764831843 0.8838834764831844 0  -0.9053088536893334 0.8619256809213338 0  -0.9261889066936986 0.8394486935587732 0  -0.9465110581331058 0.8164660536922208 0  -0.9662630667034212 0.7929916052045569 0  -0.9854330345332578 0.7690394882257836 0  -1.004009414350806 0.7446241306155419 0  -1.02198101643948 0.7197602392723068 0  -1.039337015378182 0.6944627912745027 0  -1.056066956562134 0.6687470248588714 0  -1.07216076250034 0.6426284302415273 0  -1.087608738885889 0.6161227402872302 0  -1.102401580435444 0.5892459210324973 0  -1.116530376494394 0.5620141620682586 0  -1.129986616404304 0.5344438667878525 0  -1.142762194629413 0.5065516425062374 0  -1.154849415639108 0.4783542904563624 0  -1.166240998543424 0.4498687956687354 0  -1.176930081478776 0.4211123167402754 0  -1.186910225741296 0.3921021754986143 0  -1.196175419665261 0.362855846568078 0  -1.2047200822443 0.3333909468436231 0  -1.21253906649318 0.3037252248790801 0  -1.219627662548161 0.2738765501960876 0  -1.225981600504038 0.2438629025201608 0  -1.231597052986177 0.2137023609503765 0  -1.236470637455976 0.1834130930692023 0  -1.240599418248387 0.1530133439990204 0  -1.243980908340246 0.122521425411951 0  -1.246613070848363 0.09195570449958466 0  -1.248494320256466 0.06133459290927246 0  -1.249623523370255 0.03067653565364041 0  -1.25 1.530808498934192e-16 0  -1.249623523370255 -0.0306765356536401 0  -1.248494320256466 -0.06133459290927215 0  -1.246613070848363 -0.09195570449958437 0  -1.243980908340246 -0.1225214254119507 0  -1.240599418248387 -0.1530133439990201 0  -1.236470637455976 -0.183413093069202 0  -1.231597052986177 -0.2137023609503762 0  -1.225981600504038 -0.2438629025201605 0  -1.219627662548161 -0.2738765501960873 0  -1.21253906649318 -0.3037252248790798 0  -1.2047200822443 -0.3333909468436228 0  -1.196175419665261 -0.3628558465680776 0  -1.186910225741296 -0.392102175498614 0  -1.176930081478776 -0.4211123167402752 0  -1.166240998543424 -0.4498687956687352 0  -1.154849415639108 -0.4783542904563621 0  -1.142762194629413 -0.5065516425062371 0  -1.129986616404304 -0.5344438667878523 0  -1.116530376494394 -0.5620141620682583 0  -1.102401580435444 -0.5892459210324971 0  -1.087608738885889 -0.6161227402872299 0  -1.07216076250034 -0.6426284302415269 0  -1.056066956562134 -0.6687470248588712 0  -1.039337015378182 -0.6944627912745025 0  -1.02198101643948 -0.7197602392723067 0  -1.004009414350806 -0.7446241306155416 0  -0.9854330345332579 -0.7690394882257834 0  -0.9662630667034213 -0.7929916052045566 0  -0.946511058133106 -0.8164660536922207 0  -0.9261889066936989 -0.8394486935587731 0  -0.9053088536893338 -0.8619256809213336 0  -0.8838834764831847 -0.8838834764831843 0  -0.8619256809213338 -0.9053088536893334 0  -0.8394486935587733 -0.9261889066936986 0  -0.8164660536922214 -0.9465110581331053 0  -0.7929916052045574 -0.9662630667034209 0  -0.7690394882257841 -0.9854330345332574 0  -0.7446241306155414 -1.004009414350806 0  -0.7197602392723066 -1.02198101643948 0  -0.6944627912745027 -1.039337015378182 0  -0.6687470248588716 -1.056066956562134 0  -0.6426284302415273 -1.07216076250034 0  -0.6161227402872302 -1.087608738885889 0  -0.5892459210324973 -1.102401580435444 0  -0.5620141620682586 -1.116530376494394 0  -0.5344438667878531 -1.129986616404304 0  -0.506551642506238 -1.142762194629413 0  -0.4783542904563629 -1.154849415639108 0  -0.4498687956687349 -1.166240998543424 0  -0.4211123167402749 -1.176930081478776 0  -0.3921021754986143 -1.186910225741296 0  -0.3628558465680781 -1.196175419665261 0  -0.3333909468436231 -1.2047200822443 0  -0.3037252248790802 -1.21253906649318 0  -0.2738765501960876 -1.219627662548161 0  -0.2438629025201608 -1.225981600504038 0  -0.2137023609503771 -1.231597052986176 0  -0.1834130930692029 -1.236470637455976 0  -0.1530133439990199 -1.240599418248387 0  -0.1225214254119506 -1.243980908340246 0  -0.09195570449958419 -1.246613070848363 0  -0.06133459290927254 -1.248494320256466 0  -0.03067653565364049 -1.249623523370255 0  -2.296212748401287e-16 -1.25 0  0.03067653565364003 -1.249623523370255 0  0.06133459290927207 -1.248494320256466 0  0.09195570449958373 -1.246613070848363 0  0.1225214254119501 -1.243980908340246 0  0.1530133439990195 -1.240599418248387 0  0.1834130930692024 -1.236470637455976 0  0.2137023609503766 -1.231597052986177 0  0.2438629025201604 -1.225981600504038 0  0.2738765501960872 -1.219627662548161 0  0.3037252248790797 -1.21253906649318 0  0.3333909468436227 -1.2047200822443 0  0.3628558465680776 -1.196175419665261 0  0.3921021754986139 -1.186910225741296 0  0.4211123167402745 -1.176930081478776 0  0.4498687956687345 -1.166240998543424 0  0.4783542904563625 -1.154849415639108 0  0.5065516425062375 -1.142762194629413 0  0.5344438667878527 -1.129986616404304 0  0.5620141620682583 -1.116530376494394 0  0.589245921032497 -1.102401580435444 0  0.6161227402872298 -1.087608738885889 0  0.6426284302415269 -1.07216076250034 0  0.6687470248588712 -1.056066956562134 0  0.6944627912745023 -1.039337015378182 0  0.7197602392723061 -1.02198101643948 0  0.7446241306155411 -1.004009414350806 0  0.7690394882257838 -0.9854330345332576 0  0.792991605204557 -0.9662630667034211 0  0.8164660536922209 -0.9465110581331058 0  0.8394486935587729 -0.9261889066936989 0  0.8619256809213336 -0.9053088536893338 0  0.8838834764831842 -0.8838834764831847 0  0.9053088536893333 -0.8619256809213339 0  0.9261889066936986 -0.8394486935587733 0  0.9465110581331053 -0.8164660536922214 0  0.9662630667034209 -0.7929916052045574 0  0.9854330345332574 -0.7690394882257843 0  1.004009414350806 -0.7446241306155416 0  1.02198101643948 -0.7197602392723066 0  1.039337015378182 -0.6944627912745027 0  1.056066956562134 -0.6687470248588716 0  1.07216076250034 -0.6426284302415274 0  1.087608738885889 -0.6161227402872304 0  1.102401580435443 -0.5892459210324974 0  1.116530376494394 -0.5620141620682587 0  1.129986616404304 -0.5344438667878532 0  1.142762194629413 -0.50655164250623
[...]
<PointData  Scalars="f_18079"> 
<DataArray  type="Float64"  Name="f_18079"  format="ascii">-3.6346625181345726e-11  -2.9657972493668540e-11  -5.4480791811513489e-11  -3.2217348280251894e-11  -2.8921413681309932e-11  -2.5968612775707249e-11  -2.4451702386151307e-11  -1.8818503111184620e-11  -8.2431443068338831e-12  1.1423062858577768e-12  5.2322898830867823e-12  1.0821597347860160e-11  2.5451886689078234e-11  4.7134527690931744e-11  5.0908446536201333e-11  2.9280013085654949e-11  6.7452159373748011e-11  7.1894534638902185e-11  7.8241065749649084e-11  6.0912549351717963e-11  7.7793780701712198e-11  4.2448182280343966e-11  5.3131607146177967e-11  3.6282296531612414e-11  8.7424501824886247e-12  6.0005097326986512e-12  -7.7376850870709719e-12  -4.9471199272921688e-12  -2.3760640277432408e-11  -1.7245104551848750e-11  -2.6120715709663255e-11  -1.1543684455237813e-11  -1.8429745963181257e-11  -1.7610970210525947e-11  -1.8226977975570444e-11  -2.6782558240765160e-11  -4.4854390489122417e-11  -1.0643149985286734e-10  -1.2023399827004467e-10  -8.3460002728075266e-12  -1.3895096148899221e-10  -3.8929701653035652e-11  2.0048416857409745e-11  3.6894377241082935e-11  1.1993876262649974e-10  1.6821502770829451e-10  1.5688047576085448e-10  3.6030486477572703e-10  4.1360200737546806e-10  3.3414007070440266e-10  1.9128805045721211e-10  4.2825334393636129e-10  1.6054017462674478e-10  3.8813475476886265e-10  2.0710122739943438e-10  1.4199619862335929e-10  -4.3193569846329043e-11  -3.5154434505828313e-12  -1.8091341942731431e-10  -5.6696045384358593e-10  -3.5495500248139542e-10  -3.3605553948363856e-10  -6.5978490655017142e-10  -4.9982888961064530e-10  -5.5427136181961749e-10  -1.1433215238680954e-09  -9.0927953978991298e-10  -1.6615195655389951e-09  -1.0213639342571622e-09  -1.8081489200004563e-09  -1.0818136257795333e-09  -1.1233267545444559e-09  -5.5489233473001962e-10  1.0434955767781726e-09  3.3200546295947994e-09  -2.1685613835571018e-09  5.2439648911896657e-10  2.0804886884758480e-09  -3.5227198325446850e-09  -2.9922771916127470e-09  3.5817521507729334e-10  -3.1956540823743682e-10  -4.0464556167597941e-11  -1.2224830207765670e-09  -5.1189251793004168e-09  -4.4067144386072813e-09  -3.4826902358118116e-09  -1.8946868386293487e-09  -6.9535473833922968e-10  -2.3716170228913545e-09  -9.0372102107087583e-10  -1.0083719115490646e-09  -3.0757852572064950e-09  1.7371090436640206e-09  -5.5263358444134907e-09  1.1736441590306674e-09  -1.0164493824906861e-08  1.8698254535371685e-10  -4.3257889153371651e-09  -1.4688100269579030e-08  -6.9886517477480748e-09  7.8974849380472445e-09  7.2491542224039334e-09  7.4491113885776873e-09  3.4099759833738507e-08  4.4125109005321747e-08  5.7362437801727443e-08  4.9458024860553174e-08  3.9055235328262477e-08  -3.8996060414033458e-10  1.4426123359969315e-08  1.5446463109074438e-08  3.8281217259601348e-08  7.8881518656783792e-08  1.7721342485448656e-07  2.4963260169527731e-07  1.9233730259300011e-07  1.9920085046927097e-07  2.0643365828157642e-07  2.1823269195084608e-07  3.0291125584750507e-07  2.3181551215111700e-07  2.3235734898693922e-07  2.3582117969830327e-07  2.4176244727494409e-07  3.2837934545030626e-07  2.4742604503582482e-07  2.4480660915161420e-07  2.4417956389523813e-07  2.4460193040151312e-07  2.4701913093337220e-07  3.2781013649300074e-07  2.4089576333395457e-07  2.3470327401965923e-07  2.3103491281699801e-07  2.3023487675922678e-07  3.0124156454559957e-07  2.1605767825782186e-07  2.0393775298269267e-07  1.9666275668991091e-07  1.9033037251388701e-07  2.4954730096052213e-07  8.5283247573997984e-08  5.1343789850441979e-08  2.2384712282605564e-08  1.6366377579113094e-08  1.7625814962420410e-08  -1.4307755206362164e-09  -4.8685625493511583e-08  5.7723018029838555e-08  5.6458648463456932e-08  4.1135043844353042e-08  1.1838720457951200e-08  1.1725091203854984e-08  1.6799408901225647e-08  5.6832023679983329e-09  -1.3112761728292848e-09  -1.0875124188633701e-08  -2.5838116325842226e-08  -3.2040740592742648e-09  2.3294920852597133e-09  -1.7162406033952971e-09  -2.9678750050969483e-09  -4.9586282498263522e-09  -2.8257383385496023e-09  -1.5883025564948431e-09  -2.6029772907877408e-09  -2.1988798335721063e-09  -7.1371261239409248e-09  -4.2907086774397208e-09  -2.0986856005935932e-09  -2.1278399053887127e-09  -3.6685167880916187e-09  -4.1531618999072320e-09  -3.2736146127544385e-09  -6.4685409792782608e-10  5.3516980596717859e-11  3.0253599276638354e-09  3.0689523630782600e-09  2.3858058765133273e-09  3.6663282748416073e-09  -5.6372158604687753e-10  -9.9348479095134704e-10  -3.4741451474521672e-09  2.0421788266382958e-10  -1.3184716613742775e-09  -1.3134577568411181e-09  -2.1667776389151936e-09  -1.3693855238552825e-09  -1.9521263409262861e-09  -8.4487773219310355e-10  -1.6196094237795161e-09  -9.4297694243459603e-10  -7.7872095214662020e-10  -5.5962378112605809e-10  -4.9069275250986123e-10  -1.6306730449287144e-10  5.9219829489213098e-11  7.6168357594370418e-11  1.5729000681623626e-10  3.0349207289436206e-10  2.8484784046614822e-10  4.5834480124471028e-10  2.5616726300068975e-10  3.6432226147534903e-10  5.1257718488280854e-10  2.6539534323214942e-10  4.2632018370068246e-10  3.4555395134257625e-10  1.8115944416668942e-10  2.2792764236477947e-10  3.2681856062230251e-10  1.9935359158171919e-10  1.3428134744638322e-10  7.4540367374720450e-11  6.7289330427319406e-11  -1.4075380045499913e-11  -4.3648211948082637e-11  -9.1761918805204941e-11  -7.0839435851847631e-11  -7.7795299754080787e-11  -8.3892281822968866e-11  -4.1528356103744894e-11  -1.0054148963224624e-10  -3.1955296439681441e-11  -8.5923543109230475e-11  -4.3081354911209795e-11  -7.9003572446849955e-12  -4.4142469117918867e-11  2.0720969065436705e-11  -1.0539059732180382e-11  3.5188894866189466e-11  7.8000596188625146e-11  6.5933977552899154e-11  5.2616903237145797e-11  8.1603494216419318e-11  1.3666887093987126e-10  6.2782637140945662e-11  9.5876598469551644e-11  6.5495966713152218e-11  1.1184729459924844e-10  6.5341755829428814e-11  5.0671298376550145e-11  7.6018439169184941e-11  5.3871944039350786e-11  3.9640883670542691e-11  1.1434805754752278e-11  1.9235218153826968e-11  -7.7490205699670373e-12  4.6069291911855638e-12  -2.2589200096940404e-11  -1.0692377577714399e-11  -3.5531338250387225e-11  -2.8579222499732572e-11  -4.3090499956992826e-11  -4.1642187330269315e-11  1.7832897355748805e-05  1.3936732309182903e-05  1.5418829231399804e-05  2.0486852671420914e-05  1.9043442891316219e-05  1.5244688400448521e-05  1.6316690874873675e-05  1.5219163666591215e-05  1.6233989550631010e-05  1.6135984768957091e-05  1.7829922086552504e-05  1.6186977521544958e-05  1.4784526787552854e-05  1.3601606952486999e-05  1.3723599058587013e-05  1.4070861913691563e-05  1.0755360832226470e-05  1.4109319174989625e-05  1.4560927972169589e-05  1.2108104963437342e-05  1.0140763236787212e-05  1.2590020003819606e-05  1.1105182185863431e-05  9.0950940220350495e-06  6.6291867482229956e-06  4.4543508448385881e-06  6.4344909598010186e-06  5.3045225579978617e-06  4.3027415045464439e-06  3.4388758604565841e-06  2.9297253025123611e-06  1.5011420449485422e-06  2.3419693198020292e-07  -5.3733641554228174e-08  -6.6706163249915015e-07  -4.3660535933418270e-07  -2.4852923514379059e-06  -3.2100919886548155e-06  -4.0350881229845441e-06  -3.7503347659363514e-06  -4.4221987845829260e-06  -5.2717930109652084e-06  -5.9231138157754442e-06  -7.4063280092704517e-06  -8.2513084534762529e-06  -7.3871533607480889e-06  -8.7675240764037366e-06  -1.0434871696138339e-05  -1.0048205164965264e-05  -1.0106500172390607e-05  -1.0715708447768235e-05  -1.1414034593602740e-05  -1.3424235952159833e-05  -1.2830471979224207e-05  -1.4313664257671217e-05  -1.5742902672473101e-05  -1.4626227311052183e-05  -1.5777686924725375e-05  -1.7801017952155670e-05  -1.5871451724132913e-05  -1.6795733469495729e-05  -1.7519928207727811e-05  -1.7993055882731668e-05  -1.8649361882380443e-05  -1.8643926955803410e-05  -1.9536449959189100e-05  -2.2079153341428710e-05  -2.0415789842012073e-05  -1.3880767033220179e-05  -1.2029705333856711e-05  -1.1221832289589000e-05  -1.2249002799853237e-05  -1.2743641973103183e-05  -1.1428936045398615e-05  -1.2768570218104450e-05  -1.3753214828375387e-05  -1.2771252891429701e-05  -1.0978417135489992e-05  -1.1738797467007511e-05  -1.2889320299827713e-05  -1.0755557426631408e-05  -1.0957164034160052e-05  -1.2077453192972205e-05  -1.1200179830564034e-05  -8.7933901389199701e-06  -1.0621371236129838e-05  -1.0145025318801435e-05  -8.5242145865744364e-06  -5.3223925171416238e-06  -7.5448154984863073e-06  -7.3608939430835461e-06  -5.5512963362948182e-06  -5.3649873196158291e-06  -3.5145835139506666e-06  -1.8275240926637806e-06  -1.2573426426431592e-06  -7.3284414607365613e-07  7.9700304143180143e-08  7.1621079376847201e-07  1.6136469471366766e-06  2.3292699637344100e-06  3.4032545498936882e-06  4.5666591516792200e-06  4.8269448747514904e-06  6.1262703215992948e-06  7.2589996206128370e-06  7.8150353730323711e-06  9.1810995616894142e-06  1.0294451490554053e-05  1.3296349195808024e-05  1.6183709125273564e-05  2.0942923398341508e-05  1.4666912721048720e-05  1.6535988596349189e-05  1.6584752746351948e-05  1.7668156770743391e-05  1.8752795816202219e-05  1.9860111023062190e-05  2.0597282715912854e-05  2.1581382979397228e-05  2.3592342186659776e-05  2.3005327112166937e-05  2.3748028300651512e-05  2.4562590791284607e-05  2.4834158914889721e-05  2.5343958616616162e-05  2.7040805708179650e-05  2.5850831693322408e-05  2.6014609604520656e-05  2.6317987385416846e-05  2.6014576493912316e-05  2.5850710402394881e-05  2.7040464076778673e-05  2.5343645942702448e-05  2.4833755563223431e-05  2.4562049517730580e-05  2.3747308287490525e-05  2.3004418800134538e-05  2.3591051504933803e-05  2.1580267496906939e-05  2.0596022114557517e-05  1.9858658974309126e-05  1.8751149568042939e-05  1.7666271162039102e-05  1.6584369830830805e-05  1.6550316470165373e-05  1.4550636573636254e-05  1.3278124156952594e-05  2.1322455731805609e-05  1.5466965173460276e-05  9.6028719922781690e-06  8.7100585604291563e-06  8.2374392424775605e-06  7.1842858728613906e-06  5.7065243383200399e-06  4.9724101857832065e-06  4.0000478807883377e-06  3.5959960394452641e-06  2.5873731574705390e-06  1.5141984155713039e-06  8.3400865198643839e-07  -1.8945723532340611e-08  -6.2108716146312689e-07  -1.4531629028235780e-06  -1.8871843147696414e-06  -2.3495692044048771e-06  -3.8930894607193372e-06  -5.2090813026119745e-06  -3.6684841537595553e-06  -6.1800478820815794e-06  -7.2119194316922049e-06  -9.6035989831205303e-06  -8.9462466651682701e-06  -8.9951025650178355e-06  -9.6118440477686555e-06  -1.0476117013930198e-05  -1.1879084989235765e-05  -1.2192667034042850e-05  -1.1952748386607394e-05  -1.1262534912474920e-05  -1.3175258278953585e-05  -1.2260961627801683e-05  -1.1341716892862545e-05  -1.2713718335156357e-05  -1.3581353831074309e-05  -1.2077939225358359e-05  -1.0925897821323009e-05  -1.5065134224743991e-05  -1.4064706357074778e-05  -1.1289147863396621e-05  -1.4608673525850916e-05  -1.7473668015729704e-05  -1.4193715542495572e-05  -2.1003998395952712e-05  -1.9512114097793949e-05  -1.8597361229098820e-05  -1.8120997338102796e-05  -1.7187434970927874e-05  -1.8787214073823567e-05  -1.6473172322870891e-05  -1.5708030616380270e-05  -1.5566328995390372e-05  -1.4688819025887573e-05  -1.3404327452332794e-05  -1.5135928390254967e-05  -1.8366452808079979e-05  -1.5379905223497655e-05  -1.2079720184010876e-05  -1.1479498090290296e-05  -1.0436703937892524e-05  -1.0380743317569040e-05  -1.1079333041982610e-05  -9.2574148424328524e-06  -9.0294922897891501e-06  -7.3811626371038535e-06  -5.9546167211502659e-06  -6.9826546786351445e-06  -6.2019920772116151e-06  -4.4297039887838720e-06  -3.6270173973552457e-06  -3.1799366524597041e-06  -2.4527653761583293e-06  -2.2429945095491715e-06  -1.0899113048853994e-06  -8.0474492259201325e-07  1.5770958935046337e-07  1.0277219310769072e-06  1.0153558495928270e-06  2.5731039922680428e-06  2.6828932231536093e-06  3.3697862038721889e-06  3.1233552915391057e-06  6.0871923704814078e-06  7.8016103022924443e-06  8.4048918343829508e-06  8.7025573407509118e-06  7.7567817780337295e-06  1.2062676744836725e-05  1.1797407332318443e-05  1.0997008077664282e-05  1.1229937665570032e-05  1.2826179589250816e-05  1.4463019332765100e-05  1.4760525881139366e-05  1.4160733948359884e-05  1.3718476977368314e-05  1.3873589458977186e-05  1.5467130266797765e-05  1.5205509588736164e-05  1.6374332068254417e-05  1.3245357440436849e-05  1.9352236806244678e-05  1.8064937827122155e-05  1.6717980385043919e-05  1.5984186568157822e-05  1.6964240181878386e-05  -3.1864644735671178e-11  -3.0439395854059000e-11  -3.4528819484874256e-11  2.5535091228816957e-10  1.2129794265554384e-10  2.2000566487412830e-12  -2.9968735751335146e-10  1.3973591345724863e-10  -1.3619736711868569e-12  -6.1220507352202861e-10  -7.5527407352584850e-11  -2.8857847275181375e-10  6.2783635780371304e-10  -5.3598177524356529e-10  9.8899852698799826e-10  -2.1414941590814310e-09  -1.0561103345146039e-09  -2.1722195196847413e-09  3.9743873801563472e-12  3.7915857159023105e-10  -2.3425441842072390e-12  8.4425812776484854e-12  3.1246342791895030e-11  1.4524783421839741e-09  1.0565475660283750e-09  6.1958596172042610e-10  3.0955440252555081e-09  -4.1023475240402534e-09  -1.4881243428225071e-11  8.4599475196533084e-12  -3.7178519430193795e-10  -5.8956748947380751e-09  4.1400455787122584e-10  -6.5117481926909026e-11  -1.3778336837821388e-10  -3.8110044861716891e-09  1.0485737742364542e-10  -1.0288227233930162e-11  -5.9777035415110404e-09  3.3233762711058681e-12  1.6153701052438748e-11  7.5832418965962942e-09  -8.7656450512378862e-11  -9.5599218484293969e-11  2.5072405247076864e-11  3.9831132169288745e-10  -8.7437648916529567e-10  -3.6388554960090715e-08  4.6520431715065303e-11  -5.0596284259166703e-11  -7.7653583393037264e-11  -3.6514158277586682e-08  4.2743712090614156e-11  -1.2516064528845172e-10  -6.5234357030626365e-10  2.1187568198589093e-10  -5.6813889729948764e-08  1.2962549148256583e-12  -1.0210285263001536e-10  6.6395244781119259e-09  -1.4491164212183573e-08  -1.3525388473052566e-10  1.2161217894229833e-09  -1.4114232817333751e-08  1.2343829867620502e-09  1.7659206102682319e-08  3.0141297343853479e-10  2.7022976298494599e-10  -6.7131865446868333e-08  -1.2662748990051705e-10  -7.3306389535599781e-08  5.0424196893830272e-09  -2.8593270006844109e-08  -3.5569733664731186e-08  -6.7277955138281245e-11  2.0801146947014508e-08  -5.7502132191055815e-08  3.2009750837823195e-11  1.6679650689152822e-12  1.2505654032901631e-10  3.4768251637076242e-10  4.9350107390373188e-10  -4.0944783341956274e-08  1.2227395756645857e-10  9.4483776487470423e-11  -7.1679540872527027e-08  -8.0106964919955502e-08  -6.2480573048502577e-08  1.4282631634739859e-11  4.2423075413156416e-10  -9.6891970088795670e-09  2.1023597347903886e-10  -4.0500546661109018e-08  1.1004217529898942e-10  -8.3284714117775037e-08  8.1306663593659313e-11  5.8546250691072813e-11  -3.4284122583955797e-11  1.5132010160894971e-10  -2.4044060599418451e-10  -6.4594518279779061e-08  -8.8985317237783829e-12  6.4601088566143730e-12  -8.2303899686223648e-12  -3.6869592818221103e-08  3.1679153804894030e-11  -3.3066467133558972e-12  2.4910860707340343e-11  -6.0829038445079392e-08  2.3683982820115857e-11  -4.8222670038336883e-10  3.3807076756710165e-11  -6.6999770034412626e-12  1.8517435100713408e-08  2.4151538181751026e-09  5.7648868584632395e-11  -1.0271625428609532e-10  -2.1482982274616115e-10  9.9451930551780530e-12  1.1473129885382018e-08  -7.1811791898193133e-08  -3.3145505751084668e-10  -3.7428072940190634e-11  -1.8253064595804456e-08  1.0864117554789365e-11  -7.5225559506604427e-08  -7.9311235431108648e-08  -1.9909659631524906e-11  4.8640718357468474e-12  5.3208846089875522e-11  -4.8001724207253530e-08  -8.1347809050955664e-10  8.0531820680561410e-11  7.0756161613308461e-11  -1.9895517203020662e-08  -7.9154468095488921e-08  1.3983495647908565e-07  -4.3730875026598971e-08  -5.9117400421766068e-08  -4.9520368414244168e-10  -2.3734006228201787e-11  1.6662212862375439e-11  6.7041515269129711e-08  -2.3717467466644189e-11  -1.1162288263660977e-08  -3.9048615434681282e-08  -1.9869040272040882e-11  -4.2419714320094260e-11  -2.2599637292823955e-11  -8.3916054877391073e-11  -3.6300011447032656e-11  -7.6739451357573775e-11  1.5011872038246579e-11  -4.3546865108232719e-11  -7.4024034420480225e-11  3.7047070005131337e-11  -7.5342831795475316e-09  -1.1986074122525283e-10  -1.2112311293184776e-10  -6.1700149283266378e-11  8.8655678360660602e-11  1.1779227160087484e-10  -3.5917687392707812e-10  -7.0949970197078064e-08  3.9802704820428747e-10  4.2059519101755405e-11  -1.9463951479567995e-08  2.3481754641399704e-08  7.7361957525608123e-12  -6.4203692140203218e-10  2.5764785843172580e-10  -6.1944286054797676e-10  -4.2902190401254900e-10  5.9038902140437682e-09  -3.7639064758643105e-08  -8.2991056652366737e-09  -3.7821776725781326e-11  -1.9057974548987823e-10  3.5965529688700061e-10  -6.2768542492162203e-09  -1.0713235524498098e-10  -7.5422445456373011e-11  -1.5284208559910011e-10  1.0462435651577545e-07  4.4939578271177514e-08  -6.4610015058033143e-11  -1.7460845274373308e-11  6.4945060242306688e-09  2.0869474167020880e-08  -1.1752596410637726e-07  -1.9089631012547610e-07  8.1056818907591909e-09  -9.5183535115360501e-11  7.8308201068862723e-08  -3.0940416483746643e-10  -4.7286928092903223e-10  -1.0121215854953385e-12  -2.5075674738477349e-10  -9.7023246532324953e-11  1.0295847856245635e-10  -2.2927118721106679e-11  2.6506869712608110e-10  1.3047167820838304e-08  -2.9136163798959337e-08  -3.6619755869012235e-10  1.4327773680275206e-09  4.5001119521922965e-11  -4.5051018654865098e-10  -1.7948478413944987e-09  -1.0079225645652891e-10  -5.2210509350119320e-07  -2.2106531984968008e-08  -1.8248341776306129e-10  -3.0224208814280407e-11  -2.9597747437028161e-12  7.8523780660435941e-10  -3.9852236640593213e-10  -7.8725673510406848e-10  1.0849503283261227e-10  -1.7811900423283289e-07  9.0134367108256469e-10  -1.4321208810720991e-11  -2.9960660821487916e-11  1.0511897296357339e-08  2.5842519312680955e-12  -5.6108233124632192e-13  1.3094659102022642e-11  -1.9126724620651578e-08  1.0827220674742193e-11  -6.1690442952400460e-07  -5.9132459753068875e-10  2.0131533374241445e-09  1.7475061881168316e-07  4.5127574910984514e-12  2.2185142515153313e-11  -2.2689698966356367e-10  -2.7705424857200442e-09  -1.3970732874498162e-11  5.6456419713017447e-10  -1.0923042614919050e-07  -3.5029106903866346e-07  -5.2441399311285719e-10  9.5102938510494530e-08  -4.0127519180083122e-12  4.9510064332354756e-07  1.4700527292540128e-07  -2.0678006192317421e-07  1.9012735925927439e-10  -4.3396842052143994e-07  4.2857501494960310e-10  -2.6807409097711720e-07  -1.9058866468768982e-09  -1.2768221316071124e-07  8.3493631666877304e-12  7.2954421967580990e-12  3.5057661613842202e-11  -1.0634794599946289e-10  3.9089530512843596e-10  -2.0442890210358120e-10  -4.9050115215851941e-07  3.3819028572982182e-11  3.6316631042186454e-11  5.5377687749096530e-11  4.8561855954861507e-11  -7.0096157996938266e-08  -9.3907764354449791e-11  -2.7634070436201591e-07  -1.6672367889271411e-09  -5.4114094753602011e-08  -2.7985906044260330e-07  -2.0636684640877649e-07  6.2821270809370202e-10  -1.2118233554711695e-10  2.8013297144885969e-11  -4.4310950381289985e-08  -2.8528604678301957e-11  -1.6551935999413825e-09  -1.3563268404910847e-10  -3.6618346068928188e-08  6.0063274050026968e-09  -1.7293733679129765e-09  -4.4645447229277267e-11  -6.9519102773153293e-11  -5.9413835951036757e-08  -1.9655591671710714e-07  -4.2712079577858280e-11  -2.3471327860947659e-09  -2.0608884794483931e-09  4.7528995272041429e-09  -4.3527557435139947e-10  -6.6112123216569862e-10  -1.6588354736412349e-09  -5.4171576318830754e-07  9.1132183939480636e-12  -3.5439782635041854e-07  2.8774792577464830e-12  -2.0223165902768785e-10  -4.8066060279684191e-11  4.2595179456730858e-08  9.0691034219552587