<?xml version="1.0"?>
<VTKFile type="UnstructuredGrid"  version="0.1"  >
<UnstructuredGrid>
<Piece  NumberOfPoints="3160" NumberOfCells="5316">
<Points>
<DataArray  type="Float64"  NumberOfComponents="3"  format="ascii">1.25 0 0  1.249623523370255 0.03067653565364036 0  1.248494320256466 0.06133459290927252 0  1.246613070848363 0.09195570449958429 0  1.243980908340246 0.1225214254119508 0  1.240599418248387 0.1530133439990203 0  1.236470637455976 0.1834130930692022 0  1.231597052986177 0.2137023609503765 0  1.225981600504038 0.2438629025201603 0  1.219627662548161 0.2738765501960873 0  1.21253906649318 0.3037252248790798 0  1.2047200822443 0.333390946843623 0  1.196175419665261 0.3628558465680779 0  1.186910225741296 0.3921021754986144 0  1.176930081478776 0.4211123167402751 0  1.166240998543424 0.4498687956687352 0  1.154849415639108 0.4783542904563622 0  1.142762194629413 0.5065516425062373 0  1.129986616404304 0.5344438667878526 0  1.116530376494394 0.5620141620682582 0  1.102401580435444 0.5892459210324971 0  1.087608738885889 0.61612274028723 0  1.07216076250034 0.642628430241527 0  1.056066956562134 0.6687470248588714 0  1.039337015378182 0.6944627912745027 0  1.02198101643948 0.7197602392723067 0  1.004009414350806 0.7446241306155417 0  0.9854330345332579 0.7690394882257835 0  0.9662630667034212 0.7929916052045569 0  0.9465110581331058 0.8164660536922209 0  0.9261889066936989 0.8394486935587729 0  0.9053088536893338 0.8619256809213336 0  0.8838834764831844 0.8838834764831843 0  0.8619256809213337 0.9053088536893337 0  0.8394486935587729 0.9261889066936989 0  0.8164660536922209 0.9465110581331055 0  0.7929916052045569 0.9662630667034212 0  0.7690394882257835 0.9854330345332578 0  0.7446241306155419 1.004009414350806 0  0.7197602392723067 1.02198101643948 0  0.6944627912745028 1.039337015378182 0  0.6687470248588716 1.056066956562134 0  0.642628430241527 1.07216076250034 0  0.6161227402872301 1.087608738885889 0  0.5892459210324973 1.102401580435444 0  0.5620141620682583 1.116530376494394 0  0.5344438667878527 1.129986616404304 0  0.5065516425062373 1.142762194629413 0  0.4783542904563623 1.154849415639108 0  0.4498687956687353 1.166240998543424 0  0.4211123167402751 1.176930081478776 0  0.3921021754986145 1.186910225741296 0  0.3628558465680779 1.196175419665261 0  0.333390946843623 1.2047200822443 0  0.30372522487908 1.21253906649318 0  0.2738765501960872 1.219627662548161 0  0.2438629025201604 1.225981600504038 0  0.2137023609503767 1.231597052986177 0  0.1834130930692022 1.236470637455976 0  0.1530133439990203 1.240599418248387 0  0.122521425411951 1.243980908340246 0  0.09195570449958432 1.246613070848363 0  0.06133459290927266 1.248494320256466 0  0.03067653565364033 1.249623523370255 0  7.654042494670958e-17 1.25 0  -0.03067653565364018 1.249623523370255 0  -0.06133459290927251 1.248494320256466 0  -0.09195570449958416 1.246613070848363 0  -0.1225214254119508 1.243980908340246 0  -0.1530133439990202 1.240599418248387 0  -0.1834130930692021 1.236470637455976 0  -0.2137023609503766 1.231597052986177 0  -0.2438629025201602 1.225981600504038 0  -0.2738765501960871 1.219627662548161 0  -0.3037252248790798 1.21253906649318 0  -0.3333909468436229 1.2047200822443 0  -0.3628558465680777 1.196175419665261 0  -0.3921021754986143 1.186910225741296 0  -0.4211123167402749 1.176930081478776 0  -0.4498687956687352 1.166240998543424 0  -0.4783542904563621 1.154849415639108 0  -0.5065516425062372 1.142762194629413 0  -0.5344438667878524 1.129986616404304 0  -0.5620141620682584 1.116530376494394 0  -0.5892459210324972 1.102401580435444 0  -0.61612274028723 1.087608738885889 0  -0.642628430241527 1.07216076250034 0  -0.6687470248588713 1.056066956562134 0  -0.6944627912745025 1.039337015378182 0  -0.7197602392723067 1.02198101643948 0  -0.7446241306155417 1.004009414350806 0  -0.7690394882257834 0.9854330345332579 0  -0.7929916052045567 0.9662630667034213 0  -0.8164660536922207 0.9465110581331059 0  -0.8394486935587731 0.9261889066936988 0  -0.8619256809213337 0.9053088536893337 0  -0.8838834764831843 0.8838834764831844 0  -0.9053088536893334 0.8619256809213338 0  -0.9261889066936986 0.8394486935587732 0  -0.9465110581331058 0.8164660536922208 0  -0.9662630667034212 0.7929916052045569 0  -0.9854330345332578 0.7690394882257836 0  -1.004009414350806 0.7446241306155419 0  -1.02198101643948 0.7197602392723068 0  -1.039337015378182 0.6944627912745027 0  -1.056066956562134 0.6687470248588714 0  -1.07216076250034 0.6426284302415273 0  -1.087608738885889 0.6161227402872302 0  -1.102401580435444 0.5892459210324973 0  -1.116530376494394 0.5620141620682586 0  -1.129986616404304 0.5344438667878525 0  -1.142762194629413 0.5065516425062374 0  -1.154849415639108 0.4783542904563624 0  -1.166240998543424 0.4498687956687354 0  -1.176930081478776 0.4211123167402754 0  -1.186910225741296 0.3921021754986143 0  -1.196175419665261 0.362855846568078 0  -1.2047200822443 0.3333909468436231 0  -1.21253906649318 0.3037252248790801 0  -1.219627662548161 0.2738765501960876 0  -1.225981600504038 0.2438629025201608 0  -1.231597052986177 0.2137023609503765 0  -1.236470637455976 0.1834130930692023 0  -1.240599418248387 0.1530133439990204 0  -1.243980908340246 0.122521425411951 0  -1.246613070848363 0.09195570449958466 0  -1.248494320256466 0.06133459290927246 0  -1.249623523370255 0.03067653565364041 0  -1.25 1.530808498934192e-16 0  -1.249623523370255 -0.0306765356536401 0  -1.248494320256466 -0.06133459290927215 0  -1.246613070848363 -0.09195570449958437 0  -1.243980908340246 -0.1225214254119507 0  -1.240599418248387 -0.1530133439990201 0  -1.236470637455976 -0.183413093069202 0  -1.231597052986177 -0.2137023609503762 0  -1.225981600504038 -0.2438629025201605 0  -1.219627662548161 -0.2738765501960873 0  -1.21253906649318 -0.3037252248790798 0  -1.2047200822443 -0.3333909468436228 0  -1.196175419665261 -0.3628558465680776 0  -1.186910225741296 -0.392102175498614 0  -1.176930081478776 -0.4211123167402752 0  -1.166240998543424 -0.4498687956687352 0  -1.154849415639108 -0.4783542904563621 0  -1.142762194629413 -0.5065516425062371 0  -1.129986616404304 -0.5344438667878523 0  -1.116530376494394 -0.5620141620682583 0  -1.102401580435444 -0.5892459210324971 0  -1.087608738885889 -0.6161227402872299 0  -1.07216076250034 -0.6426284302415269 0  -1.056066956562134 -0.6687470248588712 0  -1.039337015378182 -0.6944627912745025 0  -1.02198101643948 -0.7197602392723067 0  -1.004009414350806 -0.7446241306155416 0  -0.9854330345332579 -0.7690394882257834 0  -0.9662630667034213 -0.7929916052045566 0  -0.946511058133106 -0.8164660536922207 0  -0.9261889066936989 -0.8394486935587731 0  -0.9053088536893338 -0.8619256809213336 0  -0.8838834764831847 -0.8838834764831843 0  -0.8619256809213338 -0.9053088536893334 0  -0.8394486935587733 -0.9261889066936986 0  -0.8164660536922214 -0.9465110581331053 0  -0.7929916052045574 -0.9662630667034209 0  -0.7690394882257841 -0.9854330345332574 0  -0.7446241306155414 -1.004009414350806 0  -0.7197602392723066 -1.02198101643948 0  -0.6944627912745027 -1.039337015378182 0  -0.6687470248588716 -1.056066956562134 0  -0.6426284302415273 -1.07216076250034 0  -0.6161227402872302 -1.087608738885889 0  -0.5892459210324973 -1.102401580435444 0  -0.5620141620682586 -1.116530376494394 0  -0.5344438667878531 -1.129986616404304 0  -0.506551642506238 -1.142762194629413 0  -0.4783542904563629 -1.154849415639108 0  -0.4498687956687349 -1.166240998543424 0  -0.4211123167402749 -1.176930081478776 0  -0.3921021754986143 -1.186910225741296 0  -0.3628558465680781 -1.196175419665261 0  -0.3333909468436231 -1.2047200822443 0  -0.3037252248790802 -1.21253906649318 0  -0.2738765501960876 -1.219627662548161 0  -0.2438629025201608 -1.225981600504038 0  -0.2137023609503771 -1.231597052986176 0  -0.1834130930692029 -1.236470637455976 0  -0.1530133439990199 -1.240599418248387 0  -0.1225214254119506 -1.243980908340246 0  -0.09195570449958419 -1.246613070848363 0  -0.06133459290927254 -1.248494320256466 0  -0.03067653565364049 -1.249623523370255 0  -2.296212748401287e-16 -1.25 0  0.03067653565364003 -1.249623523370255 0  0.06133459290927207 -1.248494320256466 0  0.09195570449958373 -1.246613070848363 0  0.1225214254119501 -1.243980908340246 0  0.1530133439990195 -1.240599418248387 0  0.1834130930692024 -1.236470637455976 0  0.2137023609503766 -1.231597052986177 0  0.2438629025201604 -1.225981600504038 0  0.2738765501960872 -1.219627662548161 0  0.3037252248790797 -1.21253906649318 0  0.3333909468436227 -1.2047200822443 0  0.3628558465680776 -1.196175419665261 0  0.3921021754986139 -1.186910225741296 0  0.4211123167402745 -1.176930081478776 0  0.4498687956687345 -1.166240998543424 0  0.4783542904563625 -1.154849415639108 0  0.5065516425062375 -1.142762194629413 0  0.5344438667878527 -1.129986616404304 0  0.5620141620682583 -1.116530376494394 0  0.589245921032497 -1.102401580435444 0  0.6161227402872298 -1.087608738885889 0  0.6426284302415269 -1.07216076250034 0  0.6687470248588712 -1.056066956562134 0  0.6944627912745023 -1.039337015378182 0  0.7197602392723061 -1.02198101643948 0  0.7446241306155411 -1.004009414350806 0  0.7690394882257838 -0.9854330345332576 0  0.792991605204557 -0.9662630667034211 0  0.8164660536922209 -0.9465110581331058 0  0.8394486935587729 -0.9261889066936989 0  0.8619256809213336 -0.9053088536893338 0  0.8838834764831842 -0.8838834764831847 0  0.9053088536893333 -0.8619256809213339 0  0.9261889066936986 -0.8394486935587733 0  0.9465110581331053 -0.8164660536922214 0  0.9662630667034209 -0.7929916052045574 0  0.9854330345332574 -0.7690394882257843 0  1.004009414350806 -0.7446241306155416 0  1.02198101643948 -0.7197602392723066 0  1.039337015378182 -0.6944627912745027 0  1.056066956562134 -0.6687470248588716 0  1.07216076250034 -0.6426284302415274 0  1.087608738885889 -0.6161227402872304 0  1.102401580435443 -0.5892459210324974 0  1.116530376494394 -0.5620141620682587 0  1.129986616404304 -0.5344438667878532 0  1.142762194629413 -0.50655164250623
[...]
<PointData  Scalars="f_806773"> 
<DataArray  type="Float64"  Name="f_806773"  format="ascii">1.6642776822715899e+00  2.3239282802321028e+00  2.9752088199951210e+00  3.6187086131821444e+00  4.2707584533029577e+00  4.9185840983236364e+00  5.5610916113878952e+00  6.2147321483600573e+00  6.8512435049575435e+00  7.5011446555015002e+00  8.1562214872878229e+00  8.7866510955777866e+00  9.4450294774215120e+00  1.0088612989279740e+01  1.0740724651362964e+01  1.1379340204073335e+01  1.2050019532830719e+01  1.2685564806198292e+01  1.3352473574270340e+01  1.4005141849275276e+01  1.4659873138823711e+01  1.5328957013597964e+01  1.5995078487374323e+01  1.6653761085587835e+01  1.7338186970752787e+01  1.8006224767968234e+01  1.8690967260769725e+01  1.9369503608105209e+01  2.0067303668438100e+01  2.0755996835346828e+01  2.1463394082592981e+01  2.2173818954735939e+01  2.2879980025720890e+01  2.3607004565549833e+01  2.4347079819887810e+01  2.5061148913954547e+01  2.5831268924193939e+01  2.6571280300645785e+01  2.7351373436312674e+01  2.8122491675733524e+01  2.8922258928244222e+01  2.9696611326434759e+01  3.0533078185899594e+01  3.1359658775918565e+01  3.2183888473671075e+01  3.3062409583646037e+01  3.3919693050082643e+01  3.4828987191333923e+01  3.5704695203756373e+01  3.6674417468123941e+01  3.7605389202930127e+01  3.8582337082627916e+01  3.9566789377995832e+01  4.0606987791149734e+01  4.1619190623742810e+01  4.2732620376092619e+01  4.3810386397092358e+01  4.4963960111246600e+01  4.6147077690236301e+01  4.7324863744354708e+01  4.8596682917324479e+01  4.9865153681110186e+01  5.1194538943115596e+01  5.2584764933085232e+01  5.3987155034780280e+01  5.5427686488903923e+01  5.6980993847223168e+01  5.8542067351988642e+01  6.0189499489338942e+01  6.1859268714423692e+01  6.3654610797428589e+01  6.5485551512170460e+01  6.7435830113896387e+01  6.9438299793328213e+01  7.1407332167256698e+01  7.3697361701947742e+01  7.5883884306895453e+01  7.8254420989704229e+01  8.0807546216654785e+01  8.3336796440024500e+01  8.5951600355394078e+01  8.8884228567020671e+01  9.1768487330600394e+01  9.4797535185897189e+01  9.8093997597042403e+01  1.0140950749762492e+02  1.0490536195129590e+02  1.0863863531376332e+02  1.1245583491772716e+02  1.1648719818321517e+02  1.2065426778101580e+02  1.2502467539451831e+02  1.2959301444519528e+02  1.3429362017336314e+02  1.3919439361600175e+02  1.4429786602297159e+02  1.4951170149193385e+02  1.5495798861759712e+02  1.6050701123454246e+02  1.6620967913983722e+02  1.7198152812722500e+02  1.7783368657888516e+02  1.8371279795411613e+02  1.8956226084723349e+02  1.9535307023292754e+02  2.0096910789688806e+02  2.0635698568012984e+02  2.1143201574763060e+02  2.1593182689898850e+02  2.1999796441539647e+02  2.2335937062537707e+02  2.2567730000304508e+02  2.2702737349160728e+02  2.2709938807004656e+02  2.2574644461536232e+02  2.2288608345103307e+02  2.1817361419484129e+02  2.1144504262923368e+02  2.0256617078962404e+02  1.9147442275524358e+02  1.7825626395899769e+02  1.6264752268738559e+02  1.4471907487057209e+02  1.2462199552412019e+02  1.0260510207401562e+02  7.9108704977774522e+01  5.4227542261772982e+01  2.8286557113358622e+01  1.7925446765123014e+00  -2.4769688732466356e+01  -5.0916608565563102e+01  -7.6127673532984048e+01  -1.0008627276670830e+02  -1.2266613501998263e+02  -1.4341370285779840e+02  -1.6206370677491734e+02  -1.7844107726366661e+02  -1.9246943555382089e+02  -2.0438398691627791e+02  -2.1408467271902509e+02  -2.2161782201326449e+02  -2.2710369731753141e+02  -2.3070961796427054e+02  -2.3277308067725673e+02  -2.3328591102360966e+02  -2.3255925495966704e+02  -2.3064847076031481e+02  -2.2783418249121672e+02  -2.2413624567712603e+02  -2.1998121802432783e+02  -2.1521035292522359e+02  -2.1002963848483822e+02  -2.0456207939738314e+02  -1.9892971772412679e+02  -1.9315008484422469e+02  -1.8729824691811635e+02  -1.8144610342562544e+02  -1.7562675633820393e+02  -1.6989451231194232e+02  -1.6424709618358310e+02  -1.5871023147085722e+02  -1.5331678644502992e+02  -1.4808708548820738e+02  -1.4301475221524325e+02  -1.3808508055979573e+02  -1.3334024264123963e+02  -1.2878908562323673e+02  -1.2438485260968744e+02  -1.2020265601503807e+02  -1.1600169812862539e+02  -1.1215239926502332e+02  -1.0844678012889186e+02  -1.0474347894821651e+02  -1.0134282267370702e+02  -9.8060617449095346e+01  -9.4777190474228718e+01  -9.1799106828192549e+01  -8.8924395295065295e+01  -8.5993306961591031e+01  -8.3354472758442057e+01  -8.0711666168065022e+01  -7.8309853107795604e+01  -7.5788996117853344e+01  -7.3631822203461354e+01  -7.1270582099237686e+01  -6.9200694375185591e+01  -6.7165749936132116e+01  -6.5154026045267528e+01  -6.3289514645902550e+01  -6.1382233907415909e+01  -5.9699670745892575e+01  -5.7885799277022812e+01  -5.6294661926626148e+01  -5.4653455250446747e+01  -5.3134017222144792e+01  -5.1596634273061923e+01  -5.0192099808244890e+01  -4.8723327889196561e+01  -4.7369550049659381e+01  -4.6061995398015199e+01  -4.4758733414716112e+01  -4.3492786334928809e+01  -4.2233634637820245e+01  -4.1070030293115543e+01  -3.9890659131349011e+01  -3.8731967241442817e+01  -3.7645891490388976e+01  -3.6544938587091053e+01  -3.5482280582956321e+01  -3.4470723768521466e+01  -3.3448517566336754e+01  -3.2413912493860096e+01  -3.1484148431106792e+01  -3.0493131228449510e+01  -2.9574781175396755e+01  -2.8621177981524372e+01  -2.7750700512880076e+01  -2.6812363314368042e+01  -2.5964790174103133e+01  -2.5104522821233022e+01  -2.4231427203856867e+01  -2.3402061237522251e+01  -2.2571626899939492e+01  -2.1748753567343392e+01  -2.0943220815076032e+01  -2.0144104146399240e+01  -1.9350882641341748e+01  -1.8583474847541638e+01  -1.7783813094313732e+01  -1.7056779984244120e+01  -1.6283139509622359e+01  -1.5513499747715075e+01  -1.4804096321077227e+01  -1.4045201652380070e+01  -1.3337933220913833e+01  -1.2593274557598336e+01  -1.1879916171533990e+01  -1.1179268676864160e+01  -1.0455768000198596e+01  -9.7609401955842756e+00  -9.0591969080236581e+00  -8.3667781487817461e+00  -7.6728010945993006e+00  -6.9869291631164661e+00  -6.3005827289977177e+00  -5.6284854095429839e+00  -4.9532364248395364e+00  -4.2697888889291820e+00  -3.6142992726696921e+00  -2.9201254293831798e+00  -2.2848654423124328e+00  -1.6119164713336063e+00  -9.4627595322397973e-01  -2.9309592994778194e-01  3.6051148899811475e-01  1.0236227133499385e+00  4.5071141629970404e+00  4.0165950211190129e+00  3.6062090154326101e+00  3.1781557974114296e+00  2.7373226738574359e+00  2.2381960477395544e+00  1.7809089852841584e+00  1.3205123352306294e+00  8.2568820112666996e-01  3.2919082636963559e-01  -1.5338591950505301e-01  -6.4309700779791990e-01  -1.1720295822132727e+00  -1.7141619877785408e+00  -2.2481693072979194e+00  -2.8121422067320863e+00  -3.4199110910673460e+00  -3.9791009130329420e+00  -4.5429085049470208e+00  -5.1474316422697939e+00  -5.7962187271333310e+00  -6.4285818936025594e+00  -7.0759732961919708e+00  -7.7909812173864559e+00  -8.5117026405244705e+00  -9.2919627842048769e+00  -1.0004285367333278e+01  -1.0756228781810073e+01  -1.1564836511382950e+01  -1.2410393668299612e+01  -1.3272024395453318e+01  -1.4144411907286655e+01  -1.5091933285819234e+01  -1.5984495400563562e+01  -1.6928995227385538e+01  -1.8016476022908090e+01  -1.9010663210966921e+01  -2.0077097442365062e+01  -2.1142679720000171e+01  -2.2274453433899659e+01  -2.3452025207245882e+01  -2.4649013140481745e+01  -2.5902735971648877e+01  -2.7162474689476266e+01  -2.8499990381057327e+01  -2.9915324412128868e+01  -3.1324407334019380e+01  -3.2759772438189131e+01  -3.4240352105487588e+01  -3.5803685176440879e+01  -3.7436982043605326e+01  -3.9085664237737795e+01  -4.0779126662984545e+01  -4.2511494639710669e+01  -4.4298215694547821e+01  -4.6185956140910179e+01  -4.8143923054045516e+01  -5.0131799629574147e+01  -5.2157069149612568e+01  -5.4257449051534870e+01  -5.6465383639391497e+01  -5.8701279932190133e+01  -6.1025023130666519e+01  -6.3393914940761789e+01  -6.5850238664784342e+01  -6.8362625036302717e+01  -7.0936264787370192e+01  -7.3574484394089140e+01  -7.6437603102270501e+01  -7.9302239766101280e+01  -8.2274849822151367e+01  -8.5231485199205565e+01  -8.8333627508657486e+01  -9.1553739601067321e+01  -9.4808669038854973e+01  -9.8191379130481550e+01  -1.0168439289650146e+02  -1.0525745724941184e+02  -1.0884436886659456e+02  -1.1261405333213808e+02  -1.1653723802400921e+02  -1.2046830241120966e+02  -1.2454397125139228e+02  -1.2871448962557838e+02  -1.3291565700601205e+02  -1.3728696543184506e+02  -1.4171658849393091e+02  -1.4622740880373692e+02  -1.5093800625873479e+02  -1.5565531536380365e+02  -1.6037155313613562e+02  -1.6517863088604088e+02  -1.7007383128469277e+02  -1.7503324100845825e+02  -1.7998404050988034e+02  -1.8492681915566007e+02  -1.8974207629770882e+02  -1.9455815023123222e+02  -1.9933342305817499e+02  -2.0400372674869394e+02  -2.0851840098444976e+02  -2.1284862302335412e+02  -2.1686535878253011e+02  -2.2064500624756784e+02  -2.2407148867030824e+02  -2.2701826876854597e+02  -2.2946938393881172e+02  -2.3141124963219141e+02  -2.3264483228445937e+02  -2.3322647572500682e+02  -2.3266335230825010e+02  -2.3147703173776665e+02  -2.2916523014505535e+02  -2.2573331573226309e+02  -2.2110885915222326e+02  -2.1523780719383859e+02  -2.0801431672127836e+02  -1.9936558305880652e+02  -1.8928888231010876e+02  -1.7774360803979891e+02  -1.6471569064672173e+02  -1.5031064000366618e+02  -1.3451847846447475e+02  -1.1744291974162138e+02  -9.9225795928215263e+01  -7.9995059194265821e+01  -5.9932492339320383e+01  -3.9272941917634867e+01  -1.8172063897341445e+01  3.1099679886933358e+00  2.4339975506173666e+01  4.5289745053838296e+01  6.5706198697109485e+01  8.5424921584311747e+01  1.0423090242489391e+02  1.2194893917885430e+02  1.3845817143020605e+02  1.5362900222879199e+02  1.6737627736940769e+02  1.7970358929121301e+02  1.9052998654546676e+02  1.9987936401478825e+02  2.0780075271400142e+02  2.1430399173031176e+02  2.1947231742193179e+02  2.2342715241786979e+02  2.2619048434096339e+02  2.2787596793216679e+02  2.2865890063734668e+02  2.2857907860397691e+02  2.2746910731296222e+02  2.2577241090748737e+02  2.2352447412217185e+02  2.2071724566473790e+02  2.1739603918012381e+02  2.1367531838972479e+02  2.0968281484458845e+02  2.0551282977650922e+02  2.0108702067269343e+02  1.9643392539050726e+02  1.9169656494817258e+02  1.8687111494937258e+02  1.8202259251335860e+02  1.7720439563151984e+02  1.7239651256208555e+02  1.6751099603602873e+02  1.6270601872376767e+02  1.5794666141952038e+02  1.5312656103153827e+02  1.4865019180867213e+02  1.4414156714906295e+02  1.3980362769076487e+02  1.3539036754177442e+02  1.3114023037803310e+02  1.2696104884357199e+02  1.2290019592604445e+02  1.1900714476666840e+02  1.1520364543471359e+02  1.1147575168772840e+02  1.0786848205557015e+02  1.0432471031429368e+02  1.0088288557655397e+02  9.7616301236529338e+01  9.4431186163167865e+01  9.1312825949833837e+01  8.8241285353728870e+01  8.5334515534226455e+01  8.2516392244825340e+01  7.9797640345096795e+01  7.7056255934511213e+01  7.4570190972555679e+01  7.2054681605479757e+01  6.9581646166344257e+01  6.7285634369048211e+01  6.5059585415076498e+01  6.2838871697741084e+01  6.0691724210443276e+01  5.8610897213002673e+01  5.6649033989706446e+01  5.4733044850625220e+01  5.2865088225207138e+01  5.1060732751025448e+01  4.9315880314351119e+01  4.7592272656527086e+01  4.5948746122176225e+01  4.4380717755240589e+01  4.2842605215981131e+01  4.1370162988589264e+01  3.9938177959484150e+01  3.8557878730459016e+01  3.7227162288623717e+01  3.5910104438611988e+01  3.4619284191380665e+01  3.3437163365172005e+01  3.2268593172227419e+01  3.1133916671962055e+01  3.0024934589764328e+01  2.8937260300876002e+01  2.7912677134172803e+01  2.6919818894447562e+01  2.5949672276200875e+01  2.5049896584839125e+01  2.4149488860434055e+01  2.3291738448014460e+01  2.2418416565741094e+01  2.1604572566314477e+01  2.0839386340254421e+01  2.0045411742433135e+01  1.9318496022391720e+01  1.8597437174077388e+01  1.7911399351451855e+01  1.7192949374640907e+01  1.6570281598497139e+01  1.5921579657003821e+01  1.5304610366160821e+01  1.4717715522006497e+01  1.4104957769205052e+01  1.3567779116524251e+01  1.3044534809199579e+01  1.2487311604262354e+01  1.1943319561737125e+01  1.1423473152637911e+01  1.0903138245600752e+01  1.0407748868095672e+01  9.9350119993690402e+00  9.4446476957865535e+00  8.9690158295958859e+00  8.5336110254217843e+00  8.0954102543443902e+00  7.6280676395800677e+00  7.1407366486434158e+00  6.7259364686279097e+00  6.3076889314053002e+00  5.8535631680207372e+00  5.3991763425977108e+00  4.9623961631752653e+00  1.6229903958183982e+00  6.5433085600755803e+00  -3.3013961276490962e+00  1.1332352750079158e+01  -8.5743298065332674e+00  1.6271572882359500e+01  -1.3927373280192429e+01  2.1594844414001400e+01  -1.9875314664758001e+01  2.7555108048946273e+01  -2.6909151803820482e+01  3.3412023007364553e+01  -3.3639479375701569e+01  3.9627622487935305e+01  -4.1852665644264121e+01  4.6302032010885050e+01  -5.1004679172445719e+01  5.3460158145030903e+01  4.1141297563341697e+00  -5.9374248725174560e+01  -1.1691809615771842e+00  9.1879519448505338e+00  -6.5994820057892163e+00  3.9965087641379582e+00  -5.1055823761383854e+00  -6.6917602478289973e-01  8.0891311024612325e+00  6.1156070303890047e+01  -1.2314354875625597e+01  1.4457074046988225e+01  1.2384408508442139e+01  -6.8273941107234620e+01  -9.9930609636328445e+00  1.9746068258534219e+01  -1.8106904242176533e+01  1.7139130904599831e+01  -1.5079039928710380e+01  1.7345639701466562e+00  6.9531878731921765e+01  6.4714411766167954e+00  -4.3875556210271345e+00  1.7242902722231765e+00  2.5418083294307667e+01  -2.4633957798024824e+01  1.1660345369468166e+01  2.2605925833510156e+01  -2.1787679816163781e+01  -7.8091754268428446e+01  -1.0027466727998972e+01  1.7468269997164366e+01  -1.5520660705277873e+01  7.8532602054211736e+01  -3.1399936171990966e+01  3.1395249849988495e+01  -7.2292897538226795e+00  -2.7606489830214489e+00  -8.7871513586202312e+01  2.3226550099853611e+01  -2.1725244554771756e+01  -1.7674928870179631e+01  2.7797138326779105e+01  5.9764643629998107e+00  1.0097465606140512e+01  -2.8581974363236721e+01  1.4498884674347678e+01  1.9313316455155761e+01  3.7118883389014016e+01  -3.8081554310540639e+01  8.9236731828574619e+01  2.8270833278326567e+01  -9.8126970938393157e+01  -1.1827526622692758e+01  3.4924025852260456e+01  -3.6292568500954921e+01  -2.7980908512198781e+01  -2.4470947385746015e+01  9.9217661115890223e+01  9.3177254157904148e+00  -1.3080947007946784e+00  3.4332037412131228e+01  4.3719833650684336e+01  -4.7224287788967580e+01  3.0797263596755791e+01  -3.4834093808367392e+01  4.6409553460083579e+00  -1.0962812967174141e+02  -4.3816515289759849e+01  4.1707181407781533e+01  1.4143385461543069e+01  5.0221696261911248e+01  2.4454623424081973e+01  -1.0668050541874058e+01  -3.1758998178222974e+01  -5.2302352818074436e+00  1.1001952411610694e+02  4.0153678321669148e+01  -4.2049406214529292e+01  -1.6172355513874180e+01  -5.5180132849969027e+01  1.9294355088900023e+01  -1.2161710403284560e+02  3.2075453454804452e+00  8.1446251621411996e+00  -4.3212474171374041e-02  4.9017473227209429e+01  -8.4494328693610665e+00  -2.7764788628447552e+00  -6.2379803946735199e+00  -5.4207987659584617e+01  1.3498969402367891e+01  2.9837805887175360e+01  6.2450251812515511e-01  5.0343937372837182e+00  1.2034276695004301e+02  3.7654052216457401e+01  1.2692570159931172e+01  2.6806107361244984e+00  4.6898472216618728e+01  1.6052298412372156e+01  -4.8143864102626289e+01  5.5720416189186558e+01  5.7339071432402882e+01  2.6989988210336291e+00  -3.5384110754584639e+00  1.0084323030563406e+01  -3.9589316485995880e+01  -1.3496309020867633e+02  6.5452064411512370e-02  -2.7337875609332687e+00  2.3619155716433710e+01  4.5697438966637822e+00  6.5049662409655653e+01  -7.0905515256325433e+00  -5.0990235427145933e+01  3.1307656374509518e+00  -6.2278377713092858e+01  6.8955552435199430e-01  -1.0587303422154803e+00  1.3110792628399250e+02  -6.3763444934510119e+01  -1.4173376134717468e+01  -1.1927576531529875e+01  -7.8950966825225199e+00  2.1648370663592846e+01  6.8766949117980642e+00  8.5553275672341265e+00  5.4950148217807380e+00  -6.8364536805184741e+00  8.0697033802488676e+00  -2.9542631918568670e+01  2.1358279603630120e+01  1.9275756062951221e+01  -4.9380692502296704e+00  -2.2286488334520360e+01  1.5688111617619125e+01  1.0416031542100978e+01  -5.1463296878841778e+00  -1.6005862373258765e+01  -2.0230056716659774e+01  -1.7628109976918473e+01  -1.0242728764791400e+01  5.3580597677235346e+01  -2.4316732170183592e+01  4.4814641435249420e+01  -1.7494966182158194e+01  7.2614230681927969e+00  1.0726578746627778e+01  1.2281651430761562e+01  -1.3601212859733709e+01  -2.0187696399937747e+00  -8.9584383895283732e+00  2.5119521763712708e+01  3.5919297546271729e+01  -7.3096618168290448e+01  -1.4594413993130036e+02  6.3397753773025890e+01  2.5112586011244773e+01  1.8112006109104698e+01  -1.2038450893376840e+01  -1.9057369714365247e+01  -2.4054546858144480e+01  -2.6569063947786688e+01  -5.9120012987961900e+01  1.6857291864344443e+01  1.5116362106036183e+01  -1.8379395262716027e+01  1.2412344016913600e+01  -1.4885304747878426e+01  -1.2747898931151726e+01  -7.1365037957994474e+01  1.4425818258260048e+02  7.3347669323038090e+01  2.6954378494975533e+01  -9.4669656778805074e+00  5.2281011903606602e+00  2.6109240767519260e+01  -1.4671034918105403e+00  -2.0121512630790082e+01  -4.0856221506927195e+00  6.0874358024842671e+01  5.9916282878813787e-01  9.9458347728841403e+00  2.0339390297064298e+01  -1.5795035645910517e+02  -3.8677335471488561e+01  1.6355595671117097e+01  -8.6514655029917229e+00  -1.4229335626265746e+01  4.2339121010513487e+01  -2.2513512676871279e+01  7.4517578438280395e+01  -2.1332691906378301e+01  3.0294016752052048e+01  3.2920215626160868e+01  7.0466543964658399e+00  -6.7799756072759337e+01  -4.5031609828533512e+01  1.9713414038798689e+01  2.3298761494986266e+01  1.5629629994417607e+02  2.1617183189360428e+01  -3.0400898524190985e+01  -3.3333633849719739e+01  8.3346699753999360e+01  7.0497212075650237e+00  2.0255185841715200e+00  1.1381660494849134e+01  -2.1492080121564792e+00  1.4031589860362592e+01  -8.3119409598333689e+01  -8.0436464997314715e+01  2.2167564074971505e+01  5.7848752300697104e+00  -5.1188505508250657e+00  -4.5035127096186450e+01  2.9326449969191103e+01  -9.1757881892347925e+01  -2.6228674247129934e+01  6.8748109638594997e+01  -1.7109475714832158e+02  8.4248289456311909e+01  3.0984914212312418e+01  1.3556850681397597e+01  1.4889125600833724e+01  2.1666276451213946e+00  -6.1502406453899248e+00  6.8145903529366521e+01  1.3458220461506341e+01  -9.3227609136374880e+01  3.2013670612517267e+01  -2.6127360543654422e+01  4.9186010992083695e+01  1.6805011914238506e+02  -2.9033181881067360e+01  -9.8750566596626985e+00  -3.2020606180312413e+01  1.8454200586499706e+01  3.8449627159334291e+01  -3.6254021146967879e+01  -7.6717788073805266e+01  -4.0208096228654135e+01  -3.7179845821573316e+01  3.8638613788758946e+01  3.6275155442018210e+01  -1.8240578457898232e+02  -1.2197507072755043e+01  -3.3760965298491826e+01  -5.5661564828285925e+01  -5.8105318288458015e+01  2.8188606406993451e+01  2.5765303825749356e+01  -3.1269980804960575e+01  -2.7280797461182939e+01  1.2502591639768788e+01  5.2311308575560894e+01  3.3473600082121853e+00  5.7583085848134900e+01  -1.9871583785763722e+01  5.9483949186731550e+01  -1.0142177933732526e+02  9.1778020460971248e+01  1.8291928432173091e+01  1.6947919569203567e+01  -6.6701617252561405e+01  3.2097883256850437e+01  -1.5642757959992098e+01  2.6481849128123844e+01  1.7865218783950860e+02  7.8004553006605732e+01  -8.5752714139252447e+01  -3.4487727345509235e+01  -4.8054049834750472e+01  3.4352041687299206e+01  -3.9146362355020616e+00  -2.8578781094826176e+01  2.3052529892435732e+01  6.5500651115430259e+01  4.2322438121451526e+01  9.6337864427308730e+00  -1.6733792223098721e+01  -6.3037839180555075e+01  2.0398053