<?xml version="1.0"?>
<VTKFile type="UnstructuredGrid"  version="0.1"  >
<UnstructuredGrid>
<Piece  NumberOfPoints="3160" NumberOfCells="5316">
<Points>
<DataArray  type="Float64"  NumberOfComponents="3"  format="ascii">1.25 0 0  1.249623523370255 0.03067653565364036 0  1.248494320256466 0.06133459290927252 0  1.246613070848363 0.09195570449958429 0  1.243980908340246 0.1225214254119508 0  1.240599418248387 0.1530133439990203 0  1.236470637455976 0.1834130930692022 0  1.231597052986177 0.2137023609503765 0  1.225981600504038 0.2438629025201603 0  1.219627662548161 0.2738765501960873 0  1.21253906649318 0.3037252248790798 0  1.2047200822443 0.333390946843623 0  1.196175419665261 0.3628558465680779 0  1.186910225741296 0.3921021754986144 0  1.176930081478776 0.4211123167402751 0  1.166240998543424 0.4498687956687352 0  1.154849415639108 0.4783542904563622 0  1.142762194629413 0.5065516425062373 0  1.129986616404304 0.5344438667878526 0  1.116530376494394 0.5620141620682582 0  1.102401580435444 0.5892459210324971 0  1.087608738885889 0.61612274028723 0  1.07216076250034 0.642628430241527 0  1.056066956562134 0.6687470248588714 0  1.039337015378182 0.6944627912745027 0  1.02198101643948 0.7197602392723067 0  1.004009414350806 0.7446241306155417 0  0.9854330345332579 0.7690394882257835 0  0.9662630667034212 0.7929916052045569 0  0.9465110581331058 0.8164660536922209 0  0.9261889066936989 0.8394486935587729 0  0.9053088536893338 0.8619256809213336 0  0.8838834764831844 0.8838834764831843 0  0.8619256809213337 0.9053088536893337 0  0.8394486935587729 0.9261889066936989 0  0.8164660536922209 0.9465110581331055 0  0.7929916052045569 0.9662630667034212 0  0.7690394882257835 0.9854330345332578 0  0.7446241306155419 1.004009414350806 0  0.7197602392723067 1.02198101643948 0  0.6944627912745028 1.039337015378182 0  0.6687470248588716 1.056066956562134 0  0.642628430241527 1.07216076250034 0  0.6161227402872301 1.087608738885889 0  0.5892459210324973 1.102401580435444 0  0.5620141620682583 1.116530376494394 0  0.5344438667878527 1.129986616404304 0  0.5065516425062373 1.142762194629413 0  0.4783542904563623 1.154849415639108 0  0.4498687956687353 1.166240998543424 0  0.4211123167402751 1.176930081478776 0  0.3921021754986145 1.186910225741296 0  0.3628558465680779 1.196175419665261 0  0.333390946843623 1.2047200822443 0  0.30372522487908 1.21253906649318 0  0.2738765501960872 1.219627662548161 0  0.2438629025201604 1.225981600504038 0  0.2137023609503767 1.231597052986177 0  0.1834130930692022 1.236470637455976 0  0.1530133439990203 1.240599418248387 0  0.122521425411951 1.243980908340246 0  0.09195570449958432 1.246613070848363 0  0.06133459290927266 1.248494320256466 0  0.03067653565364033 1.249623523370255 0  7.654042494670958e-17 1.25 0  -0.03067653565364018 1.249623523370255 0  -0.06133459290927251 1.248494320256466 0  -0.09195570449958416 1.246613070848363 0  -0.1225214254119508 1.243980908340246 0  -0.1530133439990202 1.240599418248387 0  -0.1834130930692021 1.236470637455976 0  -0.2137023609503766 1.231597052986177 0  -0.2438629025201602 1.225981600504038 0  -0.2738765501960871 1.219627662548161 0  -0.3037252248790798 1.21253906649318 0  -0.3333909468436229 1.2047200822443 0  -0.3628558465680777 1.196175419665261 0  -0.3921021754986143 1.186910225741296 0  -0.4211123167402749 1.176930081478776 0  -0.4498687956687352 1.166240998543424 0  -0.4783542904563621 1.154849415639108 0  -0.5065516425062372 1.142762194629413 0  -0.5344438667878524 1.129986616404304 0  -0.5620141620682584 1.116530376494394 0  -0.5892459210324972 1.102401580435444 0  -0.61612274028723 1.087608738885889 0  -0.642628430241527 1.07216076250034 0  -0.6687470248588713 1.056066956562134 0  -0.6944627912745025 1.039337015378182 0  -0.7197602392723067 1.02198101643948 0  -0.7446241306155417 1.004009414350806 0  -0.7690394882257834 0.9854330345332579 0  -0.7929916052045567 0.9662630667034213 0  -0.8164660536922207 0.9465110581331059 0  -0.8394486935587731 0.9261889066936988 0  -0.8619256809213337 0.9053088536893337 0  -0.8838834764831843 0.8838834764831844 0  -0.9053088536893334 0.8619256809213338 0  -0.9261889066936986 0.8394486935587732 0  -0.9465110581331058 0.8164660536922208 0  -0.9662630667034212 0.7929916052045569 0  -0.9854330345332578 0.7690394882257836 0  -1.004009414350806 0.7446241306155419 0  -1.02198101643948 0.7197602392723068 0  -1.039337015378182 0.6944627912745027 0  -1.056066956562134 0.6687470248588714 0  -1.07216076250034 0.6426284302415273 0  -1.087608738885889 0.6161227402872302 0  -1.102401580435444 0.5892459210324973 0  -1.116530376494394 0.5620141620682586 0  -1.129986616404304 0.5344438667878525 0  -1.142762194629413 0.5065516425062374 0  -1.154849415639108 0.4783542904563624 0  -1.166240998543424 0.4498687956687354 0  -1.176930081478776 0.4211123167402754 0  -1.186910225741296 0.3921021754986143 0  -1.196175419665261 0.362855846568078 0  -1.2047200822443 0.3333909468436231 0  -1.21253906649318 0.3037252248790801 0  -1.219627662548161 0.2738765501960876 0  -1.225981600504038 0.2438629025201608 0  -1.231597052986177 0.2137023609503765 0  -1.236470637455976 0.1834130930692023 0  -1.240599418248387 0.1530133439990204 0  -1.243980908340246 0.122521425411951 0  -1.246613070848363 0.09195570449958466 0  -1.248494320256466 0.06133459290927246 0  -1.249623523370255 0.03067653565364041 0  -1.25 1.530808498934192e-16 0  -1.249623523370255 -0.0306765356536401 0  -1.248494320256466 -0.06133459290927215 0  -1.246613070848363 -0.09195570449958437 0  -1.243980908340246 -0.1225214254119507 0  -1.240599418248387 -0.1530133439990201 0  -1.236470637455976 -0.183413093069202 0  -1.231597052986177 -0.2137023609503762 0  -1.225981600504038 -0.2438629025201605 0  -1.219627662548161 -0.2738765501960873 0  -1.21253906649318 -0.3037252248790798 0  -1.2047200822443 -0.3333909468436228 0  -1.196175419665261 -0.3628558465680776 0  -1.186910225741296 -0.392102175498614 0  -1.176930081478776 -0.4211123167402752 0  -1.166240998543424 -0.4498687956687352 0  -1.154849415639108 -0.4783542904563621 0  -1.142762194629413 -0.5065516425062371 0  -1.129986616404304 -0.5344438667878523 0  -1.116530376494394 -0.5620141620682583 0  -1.102401580435444 -0.5892459210324971 0  -1.087608738885889 -0.6161227402872299 0  -1.07216076250034 -0.6426284302415269 0  -1.056066956562134 -0.6687470248588712 0  -1.039337015378182 -0.6944627912745025 0  -1.02198101643948 -0.7197602392723067 0  -1.004009414350806 -0.7446241306155416 0  -0.9854330345332579 -0.7690394882257834 0  -0.9662630667034213 -0.7929916052045566 0  -0.946511058133106 -0.8164660536922207 0  -0.9261889066936989 -0.8394486935587731 0  -0.9053088536893338 -0.8619256809213336 0  -0.8838834764831847 -0.8838834764831843 0  -0.8619256809213338 -0.9053088536893334 0  -0.8394486935587733 -0.9261889066936986 0  -0.8164660536922214 -0.9465110581331053 0  -0.7929916052045574 -0.9662630667034209 0  -0.7690394882257841 -0.9854330345332574 0  -0.7446241306155414 -1.004009414350806 0  -0.7197602392723066 -1.02198101643948 0  -0.6944627912745027 -1.039337015378182 0  -0.6687470248588716 -1.056066956562134 0  -0.6426284302415273 -1.07216076250034 0  -0.6161227402872302 -1.087608738885889 0  -0.5892459210324973 -1.102401580435444 0  -0.5620141620682586 -1.116530376494394 0  -0.5344438667878531 -1.129986616404304 0  -0.506551642506238 -1.142762194629413 0  -0.4783542904563629 -1.154849415639108 0  -0.4498687956687349 -1.166240998543424 0  -0.4211123167402749 -1.176930081478776 0  -0.3921021754986143 -1.186910225741296 0  -0.3628558465680781 -1.196175419665261 0  -0.3333909468436231 -1.2047200822443 0  -0.3037252248790802 -1.21253906649318 0  -0.2738765501960876 -1.219627662548161 0  -0.2438629025201608 -1.225981600504038 0  -0.2137023609503771 -1.231597052986176 0  -0.1834130930692029 -1.236470637455976 0  -0.1530133439990199 -1.240599418248387 0  -0.1225214254119506 -1.243980908340246 0  -0.09195570449958419 -1.246613070848363 0  -0.06133459290927254 -1.248494320256466 0  -0.03067653565364049 -1.249623523370255 0  -2.296212748401287e-16 -1.25 0  0.03067653565364003 -1.249623523370255 0  0.06133459290927207 -1.248494320256466 0  0.09195570449958373 -1.246613070848363 0  0.1225214254119501 -1.243980908340246 0  0.1530133439990195 -1.240599418248387 0  0.1834130930692024 -1.236470637455976 0  0.2137023609503766 -1.231597052986177 0  0.2438629025201604 -1.225981600504038 0  0.2738765501960872 -1.219627662548161 0  0.3037252248790797 -1.21253906649318 0  0.3333909468436227 -1.2047200822443 0  0.3628558465680776 -1.196175419665261 0  0.3921021754986139 -1.186910225741296 0  0.4211123167402745 -1.176930081478776 0  0.4498687956687345 -1.166240998543424 0  0.4783542904563625 -1.154849415639108 0  0.5065516425062375 -1.142762194629413 0  0.5344438667878527 -1.129986616404304 0  0.5620141620682583 -1.116530376494394 0  0.589245921032497 -1.102401580435444 0  0.6161227402872298 -1.087608738885889 0  0.6426284302415269 -1.07216076250034 0  0.6687470248588712 -1.056066956562134 0  0.6944627912745023 -1.039337015378182 0  0.7197602392723061 -1.02198101643948 0  0.7446241306155411 -1.004009414350806 0  0.7690394882257838 -0.9854330345332576 0  0.792991605204557 -0.9662630667034211 0  0.8164660536922209 -0.9465110581331058 0  0.8394486935587729 -0.9261889066936989 0  0.8619256809213336 -0.9053088536893338 0  0.8838834764831842 -0.8838834764831847 0  0.9053088536893333 -0.8619256809213339 0  0.9261889066936986 -0.8394486935587733 0  0.9465110581331053 -0.8164660536922214 0  0.9662630667034209 -0.7929916052045574 0  0.9854330345332574 -0.7690394882257843 0  1.004009414350806 -0.7446241306155416 0  1.02198101643948 -0.7197602392723066 0  1.039337015378182 -0.6944627912745027 0  1.056066956562134 -0.6687470248588716 0  1.07216076250034 -0.6426284302415274 0  1.087608738885889 -0.6161227402872304 0  1.102401580435443 -0.5892459210324974 0  1.116530376494394 -0.5620141620682587 0  1.129986616404304 -0.5344438667878532 0  1.142762194629413 -0.50655164250623
[...]
<PointData  Scalars="f_18049"> 
<DataArray  type="Float64"  Name="f_18049"  format="ascii">-1.1247587654651024e-05  6.2459533884388061e-04  1.2096605013833194e-03  1.8079468624821711e-03  2.4142307512024733e-03  3.0248900375916274e-03  3.6260993016578383e-03  4.2308126738610377e-03  4.8130577693105301e-03  5.4540837296891478e-03  6.0613371726900081e-03  6.6449040554668066e-03  7.2881614045852191e-03  7.9003709760760311e-03  8.5119249678453565e-03  9.0981842493120524e-03  9.7584928367341218e-03  1.0377682441948529e-02  1.1006426502145585e-02  1.1628466040408340e-02  1.2251754062855511e-02  1.2879891724910796e-02  1.3555055086714434e-02  1.4164204786830942e-02  1.4833919234697417e-02  1.5448607800854906e-02  1.6145249007685391e-02  1.6806783133857712e-02  1.7459684950064076e-02  1.8131443760606273e-02  1.8814144543952433e-02  1.9489294234655730e-02  2.0185642238714493e-02  2.0837297996256891e-02  2.1573485488637668e-02  2.2250605435594508e-02  2.2958337042187915e-02  2.3734911852082392e-02  2.4372015899441064e-02  2.5182405262187131e-02  2.5941664658904819e-02  2.6658114006925190e-02  2.7388074859809829e-02  2.8230871996955197e-02  2.9000811349819314e-02  2.9758163568106944e-02  3.0610730924955167e-02  3.1440121732413645e-02  3.2229748789350046e-02  3.3043347887277322e-02  3.3946947143616998e-02  3.4809163924686776e-02  3.5704957776813227e-02  3.6627880462522341e-02  3.7469498254732732e-02  3.8437861479398372e-02  3.9419517828625024e-02  4.0338205769537269e-02  4.1373388885790334e-02  4.2351895509245507e-02  4.3357793310661114e-02  4.4428486590843377e-02  4.5493031446007894e-02  4.6546249730465943e-02  4.7807270906994846e-02  4.8880655368940359e-02  5.0080869599283276e-02  5.1220842758801240e-02  5.2529862636549386e-02  5.3818186695279109e-02  5.5095240391200270e-02  5.6428465001721266e-02  5.7804045687259692e-02  5.9365673767562667e-02  6.0631067805522597e-02  6.2329200066654752e-02  6.3912853771841832e-02  6.5424138010230851e-02  6.7177537587775366e-02  6.9015506928132422e-02  7.0690261780090038e-02  7.2630039828230741e-02  7.4585813018416464e-02  7.6521456191796039e-02  7.8687186915651061e-02  8.0878511096186559e-02  8.3062936354652644e-02  8.5527479146873253e-02  8.8012981107683880e-02  9.0536740951359523e-02  9.3230651237316511e-02  9.6062435656279643e-02  9.9035590173575133e-02  1.0206997317015559e-01  1.0528027833966389e-01  1.0861967018024699e-01  1.1202770121123401e-01  1.1562478355497283e-01  1.1929442413748639e-01  1.2310582350731276e-01  1.2697264821395285e-01  1.3091806572624728e-01  1.3491541628956583e-01  1.3888739485242019e-01  1.4287476757010911e-01  1.4675908918516548e-01  1.5052297803882814e-01  1.5407177797551366e-01  1.5730077109433008e-01  1.6023270441607312e-01  1.6260242542158077e-01  1.6438142726380855e-01  1.6541327533818367e-01  1.6552833780620452e-01  1.6460268814291507e-01  1.6257589710046505e-01  1.5921518939430226e-01  1.5436640233224980e-01  1.4792222933161162e-01  1.3983017747484019e-01  1.3012968465123206e-01  1.1866736126271549e-01  1.0546124908424354e-01  9.0632067068194086e-02  7.4367378147358332e-02  5.6990381688287253e-02  3.8611839003953041e-02  1.9470210831892747e-02  -4.2215432265298678e-05  -1.9554905501148353e-02  -3.8694953611560307e-02  -5.7072516076624127e-02  -7.4448021424448410e-02  -9.0711256777049734e-02  -1.0553851514287371e-01  -1.1874359807502526e-01  -1.3020462688256423e-01  -1.3990388544391827e-01  -1.4799260545255538e-01  -1.5443334331845074e-01  -1.5928022281507376e-01  -1.6263974042339871e-01  -1.6468268005009903e-01  -1.6560252922631175e-01  -1.6540031794122695e-01  -1.6443593112732449e-01  -1.6260214060111555e-01  -1.6027242837514707e-01  -1.5736644264234406e-01  -1.5412929759035995e-01  -1.5056687248332298e-01  -1.4679292201204505e-01  -1.4288311395851258e-01  -1.3894206158544281e-01  -1.3492923007718355e-01  -1.3093999767335421e-01  -1.2698840658642141e-01  -1.2311936943076564e-01  -1.1933720676088058e-01  -1.1567668131489259e-01  -1.1209373341278901e-01  -1.0861647133097017e-01  -1.0528339991625976e-01  -1.0209809701818878e-01  -9.9000206856949491e-02  -9.6046388020319867e-02  -9.3233882103713861e-02  -9.0560822355343809e-02  -8.8035395561747651e-02  -8.5437856207320917e-02  -8.3144387582788415e-02  -8.0856421556693633e-02  -7.8605460895391444e-02  -7.6590956914949340e-02  -7.4536037671452060e-02  -7.2530023784088959e-02  -7.0773088180678123e-02  -6.8899187207457829e-02  -6.7092779047776913e-02  -6.5489265357684276e-02  -6.3865655839446145e-02  -6.2242882768885184e-02  -6.0750028204485870e-02  -5.9281844005582694e-02  -5.7677225693182170e-02  -5.6488457175460492e-02  -5.5083325942677654e-02  -5.3708420150332774e-02  -5.2496004986591051e-02  -5.1265026410658346e-02  -5.0042069933655939e-02  -4.8747166362344455e-02  -4.7743152417284704e-02  -4.6563733291596000e-02  -4.5468615253193324e-02  -4.4388504815075031e-02  -4.3359078051413522e-02  -4.2309659177434310e-02  -4.1339584297586204e-02  -4.0324950366009402e-02  -3.9312712725776987e-02  -3.8380597225795683e-02  -3.7481678861912227e-02  -3.6585285059951851e-02  -3.5615180037919941e-02  -3.4801921471930390e-02  -3.3894512501952329e-02  -3.3027528716584195e-02  -3.2225315325408191e-02  -3.1416852180538302e-02  -3.0515460409839594e-02  -2.9757090981700943e-02  -2.8989930539048216e-02  -2.8192323900565884e-02  -2.7406867782420567e-02  -2.6665113300746997e-02  -2.5869650792245319e-02  -2.5103164162285006e-02  -2.4466878769243736e-02  -2.3654651872060454e-02  -2.2922820466630248e-02  -2.2258626446844832e-02  -2.1524072841093055e-02  -2.0853107766690800e-02  -2.0146330811949342e-02  -1.9464135620844855e-02  -1.8789802326320701e-02  -1.8103969992968153e-02  -1.7431325515976849e-02  -1.6779605465152014e-02  -1.6086260124816867e-02  -1.5455583297091973e-02  -1.4833815338014908e-02  -1.4154497002045073e-02  -1.3519466049054660e-02  -1.2862412507446876e-02  -1.2269165267269885e-02  -1.1594699276978674e-02  -1.0960332693034402e-02  -1.0339228741073132e-02  -9.7392024528399328e-03  -9.1170814485877615e-03  -8.4663617102217897e-03  -7.8863083254486731e-03  -7.2682917093099646e-03  -6.6613896284400710e-03  -6.0212260414422543e-03  -5.4348697413756902e-03  -4.8163697337710899e-03  -4.2000282566102640e-03  -3.6476642420983176e-03  -3.0034099252505869e-03  -2.3903327733831620e-03  -1.8021379343918561e-03  -1.1985242316349899e-03  -5.9711894026338538e-04  -1.8643442049498472e-04  2.3134748926952754e-05  -1.9435854377825543e-05  4.3527792434704669e-04  6.4123273737159211e-04  8.2318159114192076e-04  9.2487215070668452e-04  1.0834853588467194e-03  1.2469445078585233e-03  1.3384559115513133e-03  1.5333576900204615e-03  1.6616508061077220e-03  1.7424024081787756e-03  1.6889874984787397e-03  1.7083174007927907e-03  1.7480654424440844e-03  1.4094197874099769e-03  1.6313923930070696e-03  1.6135759428772952e-03  1.5120125261637600e-03  1.1604982690498215e-03  1.1371171550815821e-03  8.9714384604295476e-04  5.6166905668968961e-04  1.4904615313540849e-05  -8.2848175288281159e-04  -8.4028643287625891e-04  -1.2412853006247154e-03  -1.7773416327947615e-03  -2.4387408001918169e-03  -3.0570278978584681e-03  -3.8259306026114394e-03  -5.0106330978887991e-03  -5.2883623278420899e-03  -6.0025866013011919e-03  -7.3058355428686451e-03  -8.5659275694920153e-03  -9.2443286620506257e-03  -1.0068445065905981e-02  -1.1108645455746101e-02  -1.2448015562663511e-02  -1.3667414203982264e-02  -1.4961868199552504e-02  -1.6259562360962012e-02  -1.7462042991590411e-02  -1.9014280127574650e-02  -2.0683239056100412e-02  -2.1980341391025678e-02  -2.3419242164012203e-02  -2.5101561542229742e-02  -2.6903716594081754e-02  -2.8682956229024028e-02  -3.0313200508850620e-02  -3.2008196977813534e-02  -3.3903018929297889e-02  -3.5714932814466770e-02  -3.7716213265746874e-02  -3.9803615549860130e-02  -4.1677332292532100e-02  -4.3726362633571804e-02  -4.5921259231212735e-02  -4.8097326238725917e-02  -5.0265069571099982e-02  -5.2485335889469791e-02  -5.4719519629740393e-02  -5.7047266717122541e-02  -5.9236331957847978e-02  -6.1435889664493530e-02  -6.3580404482566660e-02  -6.6085142386312176e-02  -6.8776699956964463e-02  -7.1371692029902081e-02  -7.3831399386442564e-02  -7.6397543543511040e-02  -7.9266817533760345e-02  -8.1750555558220916e-02  -8.4178671981741671e-02  -8.6953794028030995e-02  -8.9946437487123151e-02  -9.2650678393900898e-02  -9.5337592433172719e-02  -9.8535886635224959e-02  -1.0141087643150783e-01  -1.0412597710450723e-01  -1.0718500062418415e-01  -1.1040207963163620e-01  -1.1336772160728256e-01  -1.1632438824178880e-01  -1.1926767964504853e-01  -1.2311796768237093e-01  -1.2634832325048628e-01  -1.2953852020190318e-01  -1.3295102593773894e-01  -1.3551321873187233e-01  -1.3918579679559109e-01  -1.4257469595149788e-01  -1.4581034196241363e-01  -1.4903786609427080e-01  -1.5235732466555219e-01  -1.5564589459187864e-01  -1.5879391442352209e-01  -1.6192330272083014e-01  -1.6474164071936487e-01  -1.6734674697058122e-01  -1.6984275332795093e-01  -1.7195693923822591e-01  -1.7366257722307202e-01  -1.7518977656763243e-01  -1.7605916621469994e-01  -1.7668898885761911e-01  -1.7608834707948101e-01  -1.7564360046163718e-01  -1.7382542525144959e-01  -1.7150055555133334e-01  -1.6817446517396478e-01  -1.6398507728318026e-01  -1.5878777512989550e-01  -1.5249351142039635e-01  -1.4511453316617998e-01  -1.3663834637722744e-01  -1.2697270409470632e-01  -1.1619296666935590e-01  -1.0441924227236744e-01  -9.1613147577864609e-02  -7.7895178016588962e-02  -6.3388036093106268e-02  -4.8147187700135520e-02  -3.2376520728386468e-02  -1.6310374297160722e-02  -4.1075624935070627e-05  1.6228056728058746e-02  3.2295838887837922e-02  4.8067667332940878e-02  6.3309048524562053e-02  7.7817441601677292e-02  9.1536851053855547e-02  1.0434503224824794e-01  1.1611933204057470e-01  1.2689976800378597e-01  1.3656629392074951e-01  1.4504413065410293e-01  1.5242562065064627e-01  1.5872349787629647e-01  1.6392220883322936e-01  1.6811291365114711e-01  1.7144188648839487e-01  1.7388003685861864e-01  1.7529345481278191e-01  1.7641581158426156e-01  1.7660822996226697e-01  1.7590884294263576e-01  1.7501483831090694e-01  1.7372065656185837e-01  1.7195064911016783e-01  1.6972490343613594e-01  1.6719987822856588e-01  1.6453679197952567e-01  1.6186558827650635e-01  1.5888947113474883e-01  1.5561199008197574e-01  1.5236377873663687e-01  1.4901824025577415e-01  1.4567358131547889e-01  1.4244624931678582e-01  1.3921506379400064e-01  1.3580348865895298e-01  1.3210574772071351e-01  1.2938386486270881e-01  1.2566808115326789e-01  1.2218593887526039e-01  1.1947065711540224e-01  1.1655132850666035e-01  1.1355962110021575e-01  1.1029300577633865e-01  1.0715610349260150e-01  1.0408362022085828e-01  1.0121022125644269e-01  9.8415326706581499e-02  9.5618814862657026e-02  9.2562986253284379e-02  8.9840760374072640e-02  8.7191444149990027e-02  8.4292238993297852e-02  8.1530514238857321e-02  7.9122711887995648e-02  7.6715402439209462e-02  7.3567611370472921e-02  7.1250335822566416e-02  6.9046953478862097e-02  6.6481423658784719e-02  6.3599673129803760e-02  6.1580698987284348e-02  5.9162894890151550e-02  5.6885463477043700e-02  5.4747218687075286e-02  5.2477324172205214e-02  5.0189342142514894e-02  4.7963370545517574e-02  4.5872918287412343e-02  4.3905735382727219e-02  4.1804938634808608e-02  3.9817174397060298e-02  3.7853154247781053e-02  3.5790027086876182e-02  3.3637614069245821e-02  3.1910740013849213e-02  3.0394872720933174e-02  2.8637150686419026e-02  2.6946620364521778e-02  2.5284869653247787e-02  2.3465482018051872e-02  2.1865213256958480e-02  2.0527171618282429e-02  1.9082391994253586e-02  1.7904065221250140e-02  1.6294802013241582e-02  1.4816159235754654e-02  1.3881465327122172e-02  1.2696051047084243e-02  1.1329842566327502e-02  1.0152571686380030e-02  8.9594225019506771e-03  7.9680899589460088e-03  6.8951754583747001e-03  5.8591798258603141e-03  5.0615529338325109e-03  4.1758132784093594e-03  4.2887773894808067e-03  3.0343828396444663e-03  2.6341921747781594e-03  2.1986632104911072e-03  1.9000974612247538e-03  7.0490565823556287e-04  2.0753937780737365e-04  -1.5939717893834540e-04  -3.7680921944556624e-04  -4.6677362593596725e-04  -1.0242653763861051e-03  -1.1848696569209925e-03  -1.2556195448008905e-03  -1.4293423149634346e-03  -1.6874402562004540e-03  -1.7992245415588428e-03  -1.8108317717021646e-03  -1.7416615175844380e-03  -1.6935506721304399e-03  -1.6412378212932845e-03  -1.5617096344895595e-03  -1.4444219745764215e-03  -1.3512145952970654e-03  -1.1730934877160197e-03  -1.1229823937300844e-03  -9.1560902420272344e-04  -6.7598230651934560e-04  -5.4519499139561375e-04  -4.0371465696983108e-04  -3.4526229088520437e-04  5.0118043133878824e-03  -5.5942065914688036e-03  1.0203444908830118e-02  -1.0987671283523287e-02  1.5426675209687987e-02  -1.6151050812282478e-02  2.0820532937657878e-02  -2.1496013158797247e-02  2.6535464821848386e-02  -2.7347524767298591e-02  3.1798932485000410e-02  -3.2539377318585520e-02  3.7021638350001447e-02  -3.8457316537729040e-02  4.2298867084809975e-02  -4.4651791006236848e-02  4.7646330751085000e-02  2.3216642899677835e-03  -5.0062251702207863e-02  -2.9582649280314416e-03  7.4391417683971157e-03  -8.2665124619767331e-03  2.4540033717366638e-03  -8.1738541412691938e-03  -3.1433859281496754e-03  7.3671284169852811e-03  5.3152658694775104e-02  -1.3597627889865904e-02  1.2781312497149826e-02  1.2339493614310930e-02  -5.5642432844531277e-02  -1.3352971340630813e-02  1.8073034618328907e-02  -1.8829540866880410e-02  1.7513166237671692e-02  -1.8246025253539071e-02  -1.0477386853141360e-05  5.8948095405458548e-02  4.6503341088146421e-03  -5.9195008743304148e-03  -3.3073333798892032e-04  2.3613986216592425e-02  -2.4469204886097332e-02  9.8036720472519552e-03  2.2954112124036658e-02  -2.3975639667524841e-02  -6.1679532975189265e-02  -1.1210598081852945e-02  1.5557732882483803e-02  -1.6194097469384792e-02  6.5008339777431798e-02  -2.9880640083448984e-02  2.9108058907479945e-02  -1.0587633846228569e-02  -5.6130409724186366e-03  -6.7647438175068006e-02  2.1189808971099639e-02  -2.1617267753747681e-02  -2.0506233126827048e-02  2.7726143945523907e-02  4.8726074680698721e-03  9.7965057270677797e-03  -2.9347528284729085e-02  1.4776156304126452e-02  1.9681974984218330e-02  3.4147897456655259e-02  -3.4991165911761997e-02  7.2148856155690888e-02  2.5993392259795599e-02  -7.3934027655164630e-02  -1.5165281533356076e-02  3.3692034747530630e-02  -3.4898974448359002e-02  -2.6853673960701787e-02  -2.6090117335970126e-02  7.8757732723670565e-02  8.0287880060384981e-03  -3.5079410753562960e-03  3.1534894246724586e-02  3.9722327507351801e-02  -4.1677681203263713e-02  3.0104508330878160e-02  -3.2305880751881760e-02  2.9423233240896221e-03  -8.1041916997561067e-02  -3.9918314555589668e-02  3.8992061889278971e-02  1.3256006982371844e-02  4.4919843139896644e-02  2.4392419361428327e-02  -1.3055110038166397e-02  -3.1417691774288777e-02  -7.6214310844773892e-03  8.5946517008539586e-02  3.6620356907640865e-02  -3.7770231944342834e-02  -1.8229702101257642e-02  -4.7108555475512903e-02  1.8617598414277934e-02  -8.8522684068026214e-02  1.4448720452659685e-03  6.2135120139152180e-03  -1.6664196777526853e-03  4.4421683020979250e-02  -9.5320234227694780e-03  -4.2528943076548253e-03  -7.4445853040253050e-03  -4.6751543403112848e-02  1.1461456988369523e-02  2.8717540330907520e-02  -1.5426679468916579e-03  3.1948406302868214e-03  9.2813196092887157e-02  3.5538968531188882e-02  1.1118121281620316e-02  8.3764667190288299e-04  4.2207127302089052e-02  1.3949544011501594e-02  -4.2633620835904683e-02  4.9235924161695338e-02  5.0340646387997394e-02  8.5584875479130529e-04  -6.3908972497920434e-03  8.0653450091046804e-03  -3.6994201477184074e-02  -9.7075371829232510e-02  -1.9352227791770904e-03  -4.6024826735118780e-03  2.2845189107562100e-02  2.6907096215206447e-03  5.5925291491421926e-02  -9.2932927546801967e-03  -4.4170808897146398e-02  1.0728039178136846e-03  -5.1854680348066312e-02  -1.7259957453481624e-03  -3.7026539120664594e-03  1.0005113643209154e-01  -5.2781467449051232e-02  -1.4673792527909516e-02  -1.2642501481550970e-02  -1.0767739864602621e-02  1.9435358952570460e-02  5.4910092687170042e-03  7.4287412725979442e-03  3.7452940812989807e-03  -9.7208845590958277e-03  6.5281608925381119e-03  -2.9434653477322846e-02  1.9817640419634502e-02  1.7074718263946707e-02  -6.8325916131129830e-03  -2.3534028386113525e-02  1.4258435340127577e-02  8.8231025769732446e-03  -8.0589630770838555e-03  -1.7276406179283926e-02  -2.0001391731060233e-02  -1.7729215937285957e-02  -1.2020012350198873e-02  4.7461872992913726e-02  -2.5440725843042054e-02  4.1109399935065516e-02  -2.0095283456820347e-02  6.1145265194452059e-03  9.9946320683212270e-03  1.1249354104448632e-02  -1.5100299145699448e-02  -4.5290152269757498e-03  -1.1979765160923595e-02  2.4955404524523456e-02  3.3922771761631186e-02  -5.8747014703133447e-02  -1.0406573382935050e-01  5.4706264968450921e-02  2.2695235600856834e-02  1.7039857132633774e-02  -1.5097233791173170e-02  -2.0693071806550938e-02  -2.3254551148195635e-02  -2.5310482162345296e-02  -4.9711813386531814e-02  1.5945745737738323e-02  1.4504985078813719e-02  -1.9838291273089094e-02  1.1694255814174810e-02  -1.7225645433728492e-02  -1.5276346417026651e-02  -5.7680101611388424e-02  1.0889571516978731e-01  6.1740954368404696e-02  2.4433918983386035e-02  -1.2085178048615027e-02  3.7890561070310458e-03  2.4848819347506199e-02  -2.9572019062454771e-03  -2.2476847390728617e-02  -6.8417251209649020e-03  5.2947338064454799e-02  -1.2074680241249752e-03  9.1303255852755519e-03  1.9462822023652987e-02  -1.1206074672389239e-01  -3.6141556803365171e-02  1.6300710116648607e-02  -1.0438833929566802e-02  -1.7115400996445280e-02  3.9187539183133266e-02  -2.2847127111044321e-02  6.2522455821848136e-02  -2.2393979320931384e-02  2.7570075122660971e-02  2.9962379877659116e-02  5.3440334308912513e-03  -5.5402102689827246e-02  -4.0674216395402252e-02  1.9738321465490975e-02  2.1863365570791604e-02  1.1702641465922720e-01  2.1684809695093041e-02  -2.8524060774160798e-02  -3.0801361833570136e-02  6.8494391213244951e-02  5.0916087726811856e-03  3.2705392082146693e-04  9.2606148893247982e-03  -4.8285552194554920e-03  1.3886784813788655e-02  -6.5027759395557619e-02  -6.3363032039864473e-02  2.1186670536146347e-02  3.7324302675918234e-03  -6.3096673224938612e-03  -3.9820270485136526e-02  2.7382386155074084e-02  -7.0289566599860881e-02  -2.6177074430664499e-02  5.8611153752481944e-02  -1.2080648215317270e-01  6.9089802864802874e-02  3.0197204573858865e-02  1.1996134321348183e-02  1.2686166959053903e-02  -2.4433660553192641e-04  -8.6249389611042365e-03  5.8067613010716633e-02  1.2180293324146125e-02  -7.1524635043054285e-02  3.0215664071334837e-02  -2.5733395246418395e-02  4.4490440557898449e-02  1.2516918175505579e-01  -2.8202317972427369e-02  -1.0641828074741802e-02  -3.0985978967799841e-02  1.6737864034434100e-02  3.5610569408234469e-02  -3.4303381971585042e-02  -6.1166611408680772e-02  -3.6153677031333556e-02  -3.3831060384817833e-02  3.5069700070084059e-02  3.3008591753891973e-02  -1.2856570609426177e-01  -1.4522081743731180e-02  -3.1532951404328692e-02  -4.7684645982024834e-02  -4.9203787236020355e-02  2.6327280426850001e-02  2.3734502220372766e-02  -3.1274793089999642e-02  -2.8240877467461005e-02  1.0388149698864167e-02  4.6851246548625443e-02  1.5288869141703435e-03  5.0642322281586737e-02  -2.0376462106149629e-02  5.1951950668879712e-02  -7.6183054349332036e-02  7.4149068332822241e-02  1.5954169615206681e-02  1.5517865717913387e-02  -5.4684543069087981e-02  2.9737986444551882e-02  -1.5776216527556983e-02  2.6413567398406609e-02  1.3248122881069377e-01  6.5012917992850083e-02  -6.6683739033293166e-02  -3.3591964943749081e-02  -4.2644072795691122e-02  3.1312304698717756e-02  -5.1952787243787829e-03  -2.7513108399466663e-02  2.0575233735141543e-02  5.6181181904836369e-02  3.8291690214616508e-02  8.5061981431393732e-03  -1.7591606629612740e-02  -5.23757220043