<?xml version="1.0"?>
<VTKFile type="UnstructuredGrid"  version="0.1"  >
<UnstructuredGrid>
<Piece  NumberOfPoints="2401" NumberOfCells="4608">
<Points>
<DataArray  type="Float64"  NumberOfComponents="3"  format="ascii">0 0 0  0.001070538380698371 0 0  0.004277569313095364 0 0  0.009607359798386061 0 0  0.01703708685546806 0 0  0.02653493525245065 0 0  0.03806023374436157 0 0  0.05156362923366253 0 0  0.06698729810778931 0 0  0.08426519384873815 0 0  0.1033233298543955 0 0  0.1240800962605269 0 0  0.1464466094067445 0 0  0.1703270924499866 0 0  0.1956192854956637 0 0  0.2222148834902257 0 0  0.2500000000000299 0 0  0.2788556548905322 0 0  0.308658283817491 0 0  0.339280267348458 0 0  0.3705904774487813 0 0  0.4024548389919803 0 0  0.4347369038900211 0 0  0.467298435384978 0 0  0.5000000000000517 0 0  0.5327015646151253 0 0  0.5652630961100813 0 0  0.5975451610081212 0 0  0.6294095225513188 0 0  0.6607197326516399 0 0  0.6913417161826045 0 0  0.7211443451095605 0 0  0.7500000000000597 0 0  0.7777851165098603 0 0  0.8043807145044185 0 0  0.829672907550091 0 0  0.8535533905933287 0 0  0.8759199037395413 0 0  0.8966766701456674 0 0  0.9157348061513193 0 0  0.9330127018922625 0 0  0.9484363707663832 0 0  0.961939766255678 0 0  0.9734650647475827 0 0  0.9829629131445586 0 0  0.9903926402016341 0 0  0.9957224306869181 0 0  0.9989294616193084 0 0  1 0 0  0 0.02083333333333333 0  0.001070538380698371 0.02083333333333333 0  0.004277569313095364 0.02083333333333333 0  0.009607359798386061 0.02083333333333333 0  0.01703708685546806 0.02083333333333333 0  0.02653493525245065 0.02083333333333333 0  0.03806023374436157 0.02083333333333333 0  0.05156362923366253 0.02083333333333333 0  0.06698729810778931 0.02083333333333333 0  0.08426519384873815 0.02083333333333333 0  0.1033233298543955 0.02083333333333333 0  0.1240800962605269 0.02083333333333333 0  0.1464466094067445 0.02083333333333333 0  0.1703270924499866 0.02083333333333333 0  0.1956192854956637 0.02083333333333333 0  0.2222148834902257 0.02083333333333333 0  0.2500000000000299 0.02083333333333333 0  0.2788556548905322 0.02083333333333333 0  0.308658283817491 0.02083333333333333 0  0.339280267348458 0.02083333333333333 0  0.3705904774487813 0.02083333333333333 0  0.4024548389919803 0.02083333333333333 0  0.4347369038900211 0.02083333333333333 0  0.467298435384978 0.02083333333333333 0  0.5000000000000517 0.02083333333333333 0  0.5327015646151253 0.02083333333333333 0  0.5652630961100813 0.02083333333333333 0  0.5975451610081212 0.02083333333333333 0  0.6294095225513188 0.02083333333333333 0  0.6607197326516399 0.02083333333333333 0  0.6913417161826045 0.02083333333333333 0  0.7211443451095605 0.02083333333333333 0  0.7500000000000597 0.02083333333333333 0  0.7777851165098603 0.02083333333333333 0  0.8043807145044185 0.02083333333333333 0  0.829672907550091 0.02083333333333333 0  0.8535533905933287 0.02083333333333333 0  0.8759199037395413 0.02083333333333333 0  0.8966766701456674 0.02083333333333333 0  0.9157348061513193 0.02083333333333333 0  0.9330127018922625 0.02083333333333333 0  0.9484363707663832 0.02083333333333333 0  0.961939766255678 0.02083333333333333 0  0.9734650647475827 0.02083333333333333 0  0.9829629131445586 0.02083333333333333 0  0.9903926402016341 0.02083333333333333 0  0.9957224306869181 0.02083333333333333 0  0.9989294616193084 0.02083333333333333 0  1 0.02083333333333333 0  0 0.04166666666666666 0  0.001070538380698371 0.04166666666666666 0  0.004277569313095364 0.04166666666666666 0  0.009607359798386061 0.04166666666666666 0  0.01703708685546806 0.04166666666666666 0  0.02653493525245065 0.04166666666666666 0  0.03806023374436157 0.04166666666666666 0  0.05156362923366253 0.04166666666666666 0  0.06698729810778931 0.04166666666666666 0  0.08426519384873815 0.04166666666666666 0  0.1033233298543955 0.04166666666666666 0  0.1240800962605269 0.04166666666666666 0  0.1464466094067445 0.04166666666666666 0  0.1703270924499866 0.04166666666666666 0  0.1956192854956637 0.04166666666666666 0  0.2222148834902257 0.04166666666666666 0  0.2500000000000299 0.04166666666666666 0  0.2788556548905322 0.04166666666666666 0  0.308658283817491 0.04166666666666666 0  0.339280267348458 0.04166666666666666 0  0.3705904774487813 0.04166666666666666 0  0.4024548389919803 0.04166666666666666 0  0.4347369038900211 0.04166666666666666 0  0.467298435384978 0.04166666666666666 0  0.5000000000000517 0.04166666666666666 0  0.5327015646151253 0.04166666666666666 0  0.5652630961100813 0.04166666666666666 0  0.5975451610081212 0.04166666666666666 0  0.6294095225513188 0.04166666666666666 0  0.6607197326516399 0.04166666666666666 0  0.6913417161826045 0.04166666666666666 0  0.7211443451095605 0.04166666666666666 0  0.7500000000000597 0.04166666666666666 0  0.7777851165098603 0.04166666666666666 0  0.8043807145044185 0.04166666666666666 0  0.829672907550091 0.04166666666666666 0  0.8535533905933287 0.04166666666666666 0  0.8759199037395413 0.04166666666666666 0  0.8966766701456674 0.04166666666666666 0  0.9157348061513193 0.04166666666666666 0  0.9330127018922625 0.04166666666666666 0  0.9484363707663832 0.04166666666666666 0  0.961939766255678 0.04166666666666666 0  0.9734650647475827 0.04166666666666666 0  0.9829629131445586 0.04166666666666666 0  0.9903926402016341 0.04166666666666666 0  0.9957224306869181 0.04166666666666666 0  0.9989294616193084 0.04166666666666666 0  1 0.04166666666666666 0  0 0.0625 0  0.001070538380698371 0.0625 0  0.004277569313095364 0.0625 0  0.009607359798386061 0.0625 0  0.01703708685546806 0.0625 0  0.02653493525245065 0.0625 0  0.03806023374436157 0.0625 0  0.05156362923366253 0.0625 0  0.06698729810778931 0.0625 0  0.08426519384873815 0.0625 0  0.1033233298543955 0.0625 0  0.1240800962605269 0.0625 0  0.1464466094067445 0.0625 0  0.1703270924499866 0.0625 0  0.1956192854956637 0.0625 0  0.2222148834902257 0.0625 0  0.2500000000000299 0.0625 0  0.2788556548905322 0.0625 0  0.308658283817491 0.0625 0  0.339280267348458 0.0625 0  0.3705904774487813 0.0625 0  0.4024548389919803 0.0625 0  0.4347369038900211 0.0625 0  0.467298435384978 0.0625 0  0.5000000000000517 0.0625 0  0.5327015646151253 0.0625 0  0.5652630961100813 0.0625 0  0.5975451610081212 0.0625 0  0.6294095225513188 0.0625 0  0.6607197326516399 0.0625 0  0.6913417161826045 0.0625 0  0.7211443451095605 0.0625 0  0.7500000000000597 0.0625 0  0.7777851165098603 0.0625 0  0.8043807145044185 0.0625 0  0.829672907550091 0.0625 0  0.8535533905933287 0.0625 0  0.8759199037395413 0.0625 0  0.8966766701456674 0.0625 0  0.9157348061513193 0.0625 0  0.9330127018922625 0.0625 0  0.9484363707663832 0.0625 0  0.961939766255678 0.0625 0  0.9734650647475827 0.0625 0  0.9829629131445586 0.0625 0  0.9903926402016341 0.0625 0  0.9957224306869181 0.0625 0  0.9989294616193084 0.0625 0  1 0.0625 0  0 0.08333333333333333 0  0.001070538380698371 0.08333333333333333 0  0.004277569313095364 0.08333333333333333 0  0.009607359798386061 0.08333333333333333 0  0.01703708685546806 0.08333333333333333 0  0.02653493525245065 0.08333333333333333 0  0.03806023374436157 0.08333333333333333 0  0.05156362923366253 0.08333333333333333 0  0.06698729810778931 0.08333333333333333 0  0.08426519384873815 0.08333333333333333 0  0.1033233298543955 0.08333333333333333 0  0.1240800962605269 0.08333333333333333 0  0.1464466094067445 0.08333333333333333 0  0.1703270924499866 0.08333333333333333 0  0.1956192854956637 0.08333333333333333 0  0.2222148834902257 0.08333333333333333 0  0.2500000000000299 0.08333333333333333 0  0.2788556548905322 0.08333333333333333 0  0.308658283817491 0.08333333333333333 0  0.339280267348458 0.08333333333333333 0  0.3705904774487813 0.08333333333333333 0  0.4024548389919803 0.08333333333333333 0  0.4347369038900211 0.08333333333333333 0  0.467298435384978 0.08333333333333333 0  0.5000000000000517 0.08333333333333333 0  0.5327015646151253 0.08333333333333333 0  0.5652630961100813 0.08333333333333333 0  0.5975451610081212 0.08333333333333333 0  0.6294095225513188 0.08333333333333333 0  0.6607197326516399 0.08333333333333333 0  0.6913417161826045 0.08333333333333333 0  0.7211443451095605 0.08333333333333333 0  0.7500000000000597 0.08333333333333333 0  0.7777851165098603 0.08333333333333333 0  0.8043807145044185 0.08333333333333333 0  0.829672907550091 0.08333333333333333 0  0.8535533905933287 0.08333333333333333 0  0.8759199037395413 0.08333333333333333 0  0.8966766701456674 0.08333333333333333 0  0.9157348061513193 0.08333333333333333 0  0.9330127018922625 0.08333333333333333 0  0.9484363707663832 0.08333333333333333 0  0.961939766255678 0.08333333333333333 0  0.9734650647475827 0.08333333333333333 0  0.9829629131445586 0.08333333333333333 0  0.9903926402016341 0.08333333333333333 0  0.9957224306869181 0.08333333333333333 0  0.9989294616193084 0.08333333333333333 0  1 0.08333333333333333 0  0 0.1041666666666667 0  0.001070538380698371 0.1041666666666667 0  0.004277569313095364 0.1041666666666667 0  0.009607359798386061 0.1041666666666667 0  0.01703708685546806 0.1041666666666667 0  0.02653493525245065 0.1041666666666667 0  0.03806023374436157 0.1041666666666667 0  0.05156362923366253 0.1041666666666667 0  0.06698729810778931 0.1041666666666667 0  0.08426519384873815 0.1041666666666667 0  0.1033233298543955 0.1041666666666667 0  0.1240800962605269 0.1041666666666667 0  0.1464466094067445 0.1041666666666667 0  0.1703270924499866 0.1041666666666667 0  0.1956192854956637 0.1041666666666667 0  0.2222148834902257 0.1041666666666667 0  0.2500000000000299 0.1041666666666667 0  0.2788556548905322 0.1041666666666667 0  0.308658283817491 0.1041666666666667 0  0.339280267348458 0.1041666666666667 0  0.3705904774487813 0.1041666666666667 0  0.4024548389919803 0.1041666666666667 0  0.4347369038900211 0.1041666666666667 0  0.467298435384978 0.1041666666666667 0  0.5000000000000517 0.1041666666666667 0  0.5327015646151253 0.1041666666666667 0  0.5652630961100813 0.1041666666666667 0  0.5975451610081212 0.1041666666666667 0  0.62
[...]
<PointData  Scalars="f_15444604"> 
<DataArray  type="Float64"  Name="f_15444604"  format="ascii">1.0000000000000000e+00  9.9890528726327954e-01  9.9562583314974595e-01  9.9017564858848817e-01  9.8257791513855586e-01  9.7286479594907882e-01  9.6107731788729600e-01  9.4726510846571899e-01  9.3148643454890612e-01  9.1380838911518147e-01  8.9430758205163174e-01  8.7306905465316076e-01  8.5018695596667493e-01  8.2576541493615452e-01  7.9991687326724248e-01  7.7276207168683775e-01  7.4442835953010744e-01  7.1504865391424621e-01  6.8476203288392579e-01  6.5371049272527004e-01  6.2203797912543968e-01  5.8988858151145462e-01  5.5740681267283121e-01  5.2473591992969570e-01  4.9201794417275230e-01  4.5939220883977422e-01  4.2699535100489644e-01  3.9496100749190388e-01  3.6341949281582830e-01  3.3249713609245657e-01  3.0231681229023971e-01  2.7299795748041156e-01  2.4465625864468740e-01  2.1740316024100165e-01  1.9134576316717689e-01  1.6658654520392552e-01  1.4322333702905737e-01  1.2134957612931550e-01  1.0105399434032324e-01  8.2420078826103929e-02  6.5525618384916856e-02  5.0442328169856575e-02  3.7235017910281651e-02  2.5960896297410881e-02  1.6669061378275764e-02  9.3999961194495864e-03  4.1852734612704712e-03  1.0474414961800565e-03  -1.0623631724738157e-15  1.0000000000000002e+00  9.9890532368809148e-01  9.9562598682690640e-01  9.9017599711682480e-01  9.8257851565893595e-01  9.7286559765809921e-01  9.6107805576610705e-01  9.4726537108788711e-01  9.3148564857785177e-01  9.1380590025561292e-01  8.9430237811378011e-01  8.7306063535119227e-01  8.5017459668764706e-01  8.2574862268972948e-01  7.9989527790417558e-01  7.7273569572210199e-01  7.4439751544186328e-01  7.1501357213243255e-01  6.8472336866212336e-01  6.5366915593323649e-01  6.2199482885281798e-01  5.8984419648457342e-01  5.5736201615748848e-01  5.2469133158876324e-01  4.9197440336576154e-01  4.5935052799845899e-01  4.2695624662625736e-01  3.9492496926484405e-01  3.6338683359899049e-01  3.3246810131408738e-01  3.0229167378251220e-01  2.7297685487884332e-01  2.4463929024642744e-01  2.1739021774940862e-01  1.9133651561447826e-01  1.6658063988096569e-01  1.4322035230121766e-01  1.2134894090557455e-01  1.0105508161011767e-01  8.2422297423141846e-02  6.5528393948414240e-02  5.0445179529578804e-02  3.7237607568005995e-02  2.5962999641803559e-02  1.6670559964352651e-02  9.4009083259736677e-03  4.1857006600198561e-03  1.0475514807694935e-03  -9.6400445394984713e-16  1.0000000000000013e+00  9.9890542624534162e-01  9.9562640387780310e-01  9.9017694303344961e-01  9.8258014907446500e-01  9.7286795042148411e-01  9.6108094892038531e-01  9.4726812180672382e-01  9.3148713063936583e-01  9.1380442766676651e-01  8.9429637500019898e-01  8.7304837415883729e-01  8.5015451140280929e-01  8.2571928177452503e-01  7.9985580439003245e-01  7.7268571109855277e-01  7.4433737901511476e-01  7.1494418961537898e-01  6.8464571101533545e-01  6.5358473354313718e-01  6.2190535297753358e-01  5.8975139961746903e-01  5.5726796532546019e-01  5.2459772141440708e-01  4.9188281561395436e-01  4.5926289447344809e-01  4.2687409425444273e-01  3.9484965910364284e-01  3.6331947354695865e-01  3.3240939353099003e-01  3.0224220965074861e-01  2.7293690345957983e-01  2.4460868994248064e-01  2.1736852316910932e-01  1.9132289451494017e-01  1.6657402474614735e-01  1.4321960614932105e-01  1.2135275235772201e-01  1.0106186219747848e-01  8.2430648029405251e-02  6.5537164068566647e-02  5.0453388758848555e-02  3.7244592272093119e-02  2.5968440057922128e-02  1.6674359175443128e-02  9.4031776410904832e-03  4.1867545260173668e-03  1.0478221005496154e-03  -8.9203305634985526e-16  9.9999999999999967e-01  9.9890561831003921e-01  9.9562717343368479e-01  9.9017866929210707e-01  9.8258317016925467e-01  9.7287244553659036e-01  9.6108680001724789e-01  9.4727499480066513e-01  9.3149397611825735e-01  9.1380978575111471e-01  8.9429792315249357e-01  8.7304433536765980e-01  8.5014311392239783e-01  8.2569848553051972e-01  7.9982425616750441e-01  7.7264248392616641e-01  7.4428274203953559e-01  7.1487898650029202e-01  6.8457099223687179e-01  6.5350170598117363e-01  6.2181567158531958e-01  5.8965771211339146e-01  5.5717195273552467e-01  5.2450198367574385e-01  4.9178940810964711e-01  4.5917384009069856e-01  4.2679130360105144e-01  3.9477479351797240e-01  3.6325401268954011e-01  3.3235463535233550e-01  3.0219875449210709e-01  2.7290481440297670e-01  2.4458740115869046e-01  2.1735709034180312e-01  1.9132009004102893e-01  1.6657833852105178e-01  1.4322941880693676e-01  1.2136626739502496e-01  1.0107742014561352e-01  8.2446542505420023e-02  6.5552202150421082e-02  5.0466677909263805e-02  3.7255479082313983e-02  2.5976686328288541e-02  1.6680037181592729e-02  9.4065666804782847e-03  4.1883263390896965e-03  1.0482254081739958e-03  -5.0396789479008970e-16  1.0000000000000007e+00  9.9890595056677944e-01  9.9562848578091778e-01  9.9018155823197540e-01  9.8258814146171336e-01  9.7287991347170999e-01  9.6109689753128058e-01  9.4728745220896549e-01  9.3150836699357520e-01  9.1382512196049270e-01  8.9431248056747448e-01  8.7305588662625822e-01  8.5015008363851952e-01  8.2569900822848297e-01  7.9981682170431279e-01  7.7262568513570229e-01  7.4425625242593807e-01  7.1484343977386300e-01  6.8452693801112252e-01  6.5345027117677423e-01  6.2175794083158475e-01  5.8959559745055712e-01  5.5710772472978776e-01  5.2443732639341822e-01  4.9172648438432187e-01  4.5911466910764726e-01  4.2673771146534001e-01  3.9472832735873398e-01  3.6321593485025211e-01  3.3232629058490443e-01  3.0218079890158145e-01  2.7289715396224606e-01  2.4458916053715643e-01  2.1736690761172175e-01  1.9133651801702575e-01  1.6659969281873441e-01  1.4325381699896858e-01  1.2139203834358755e-01  1.0110297440732285e-01  8.2470652268548758e-02  6.5573740802511410e-02  5.0485014315384748e-02  3.7270230870218933e-02  2.5987769519998156e-02  1.6687633511620292e-02  9.4110887822211504e-03  4.1904238361768010e-03  1.0487637434248502e-03  -6.7921263208484486e-16  9.9999999999999978e-01  9.9890645617884666e-01  9.9563047203917765e-01  9.9018590803185680e-01  9.8259560738307927e-01  9.7289105533018505e-01  9.6111209141875986e-01  9.4730696320411023e-01  9.3153192441501842e-01  9.1385238530263568e-01  8.9434267625948149e-01  8.7308720425891240e-01  8.5018096371371810e-01  8.2572815063142546e-01  7.9984261565508219e-01  7.7264703607378504e-01  7.4427182651209101e-01  7.1485350833333194e-01  6.8453143066134259e-01  6.5344961869422158e-01  6.2175303206637289e-01  5.8958707616708317e-01  5.5709702142834561e-01  5.2442614191052361e-01  4.9171601052484087e-01  4.5910625291949941e-01  4.2673314383040634e-01  3.9472862733992092e-01  3.6322206630020148e-01  3.3233910877612727e-01  3.0220064633360233e-01  2.7292382509701379e-01  2.4462179502156869e-01  2.1740411294178613e-01  1.9137667355261304e-01  1.6664114790910786e-01  1.4329496209868256e-01  1.2143145386810221e-01  1.0113954844665086e-01  8.2503470512460833e-02  6.5602255672525797e-02  5.0508808124616250e-02  3.7289212459657696e-02  2.6001938736662893e-02  1.6697298033619641e-02  9.4168218403749750e-03  4.1930764675413967e-03  1.0494436032512382e-03  -9.8759274391260873e-16  1.0000000000000004e+00  9.9890715701827870e-01  9.9563322074337657e-01  9.9019191014830843e-01  9.8260587614397810e-01  9.7290644044605423e-01  9.6113327298841189e-01  9.4733429757679299e-01  9.3156594056006337e-01  9.1389298566055510e-01  8.9438984324017645e-01  8.7314027827578955e-01  8.5023869940478136e-01  8.2578946735601855e-01  7.9990647995792963e-01  7.7271236080322869e-01  7.4433718031806684e-01  7.1491789175327669e-01  6.8459472353524142e-01  6.5351117877309006e-01  6.2181297938760360e-01  5.8964522556777466e-01  5.5715368539562649e-01  5.2448187218206410e-01  4.9177145117395393e-01  4.5916177685687365e-01  4.2678958919726834e-01  3.9478673617376897e-01  3.6328232848989972e-01  3.3240179119156865e-01  3.0226560717909734e-01  2.7299070511202467e-01  2.4468981263261236e-01  2.1747206471634889e-01  1.9144304734182657e-01  1.6670456515326310e-01  1.4335421400557130e-01  1.2148558984218072e-01  1.0118795213625374e-01  8.2545778122231406e-02  6.5638336645665943e-02  5.0538572084989422e-02  3.7312689438522971e-02  2.6019365442235418e-02  1.6709121403254666e-02  9.4238051345074802e-03  4.1962953499680546e-03  1.0502666988820458e-03  -9.2187191087170666e-16  9.9999999999999922e-01  9.9890805393797133e-01  9.9563674579714478e-01  9.9019962671939243e-01  9.8261913811486423e-01  9.7292636326556081e-01  9.6116082685674342e-01  9.4737030473004236e-01  9.3161098100921880e-01  9.1394779210390742e-01  8.9445466006768970e-01  8.7321572073088616e-01  8.5032415938468764e-01  8.2588435207607214e-01  8.0001002052363568e-01  7.7282357446940242e-01  7.4445499025485939e-01  7.1504055756659934e-01  6.8472111511114353e-01  6.5364020807265899e-01  6.2194343413327868e-01  5.8977620930357522e-01  5.5728413779821684e-01  5.2461158191674739e-01  4.9189967302241183e-01  4.5928808208220273e-01  4.2691355722663465e-01  3.9490845271583180e-01  3.6340169117398180e-01  3.3251865628532279e-01  3.0237945870506278e-01  2.7310089639967983e-01  2.4479563307172303e-01  2.1757254321168915e-01  1.9153702643255846e-01  1.6679103259416619e-01  1.4343252027357317e-01  1.2155535606349176e-01  1.0124907375291391e-01  8.2598290637458438e-02  6.5682406203262586e-02  5.0574474224634909e-02  3.7340757050121146e-02  2.6040081181828319e-02  1.6723132345701792e-02  9.4320605345008350e-03  4.2000923879471621e-03  1.0512360876962445e-03  -1.7031691110022852e-15  1.0000000000000002e+00  9.9890917208948515e-01  9.9564113678881605e-01  9.9020922936758771e-01  9.8263560270977357e-01  9.7295111717824345e-01  9.6119504759738206e-01  9.4741513742768868e-01  9.3166750638345552e-01  9.1401698829172184e-01  8.9453761812988719e-01  8.7331315517276142e-01  8.5043699810724893e-01  8.2601235285684649e-01  8.0015283032619455e-01  7.7298037205104875e-01  7.4462466552573026e-01  7.1522136175657713e-01  6.8491116154504250e-01  6.5383740630315634e-01  6.2214566703748453e-01  5.8998141400576964e-01  5.5749020460020782e-01  5.2481688889834743e-01  4.9210277865513152e-01  4.5948718667088861e-01  4.2710730303440314e-01  3.9509587995086787e-01  3.6358207108238577e-01  3.3269115529304910e-01  3.0254337726114350e-01  2.7325545210112895e-01  2.4494013588449548e-01  2.1770622202375048e-01  1.9165923154597483e-01  1.6690123645119215e-01  1.4353058567811067e-01  1.2164142569188975e-01  1.0132340382903955e-01  8.2661446528943083e-02  6.5734867895434715e-02  5.0616847909110974e-02  3.7373674963532486e-02  2.6064239192910354e-02  1.6739396536297503e-02  9.4416078699047171e-03  4.2044798314902236e-03  1.0523563644166077e-03  -6.7317029627808453e-16  1.0000000000000000e+00  9.9891052427594318e-01  9.9564644136708924e-01  9.9022080728380868e-01  9.8265539307448246e-01  9.7298071172814626e-01  9.6123594613906260e-01  9.4746868648648064e-01  9.3173526264314210e-01  9.1410052424253596e-01  8.9463834169035050e-01  8.7343238710427706e-01  8.5057599497759162e-01  8.2617196471265197e-01  8.0033299283895087e-01  7.7318058539035384e-01  7.4484370287682000e-01  7.1545759453620694e-01  6.8516207340437729e-01  6.5410027778025981e-01  6.2241736504886602e-01  5.9025897367174018e-01  5.5777031990527715e-01  5.2509646088220652e-01  4.9237925664293958e-01  4.5975808276325608e-01  4.2736995416133206e-01  3.9534845062186857e-01  3.6382292952310524e-01  3.3291896319333963e-01  3.0275700716610598e-01  2.7345411574696499e-01  2.4512314196885399e-01  2.1787313004539524e-01  1.9180977591356155e-01  1.6703539241497276e-01  1.4364867288200031e-01  1.2174399462446789e-01  1.0141123148754205e-01  8.2735439160208479e-02  6.5795946292324159e-02  5.0665879842341610e-02  3.7411558695168219e-02  2.6091871073995698e-02  1.6757894550403045e-02  9.4524217590677070e-03  4.2094306805368588e-03  1.0536176670898755e-03  -9.1321126316392868e-16  1.0000000000000016e+00  9.9891206842658042e-01  9.9565250974943786e-01  9.9023409158612419e-01  9.8267820789867366e-01  9.7301496640470164e-01  9.6128331690747448e-01  9.4753090447237498e-01  9.3181395847427440e-01  9.1419767239063132e-01  8.9475594475565412e-01  8.7357225692132578e-01  8.5073983859725455e-01  8.2636104864828142e-01  8.0054781415017073e-01  7.7342086214505135e-01  7.4510842194283378e-01  7.1574487142888232e-01  6.8546917975165611e-01  6.5442401440070552e-01  6.2275381833794641e-01  5.9060417169829549e-01  5.5812018268666475e-01  5.2544645162687897e-01  4.9272553777576916e-01  4.6009717014345819e-01  4.2769853997039881e-01  3.9566345943268799e-01  3.6412201575158959e-01  3.3320017483344322e-01  3.0301891279807663e-01  2.7369567505873721e-01  2.4534379208906185e-01  2.1807263523524489e-01  1.9198822978728558e-01  1.6719325059449544e-01  1.4378664151286252e-01  1.2186306666103632e-01  1.0151266394852368e-01  8.2820477034820886e-02  6.5865776204816665e-02  5.0721596244997717e-02  3.7454280797226000e-02  2.6122829200067720e-02  1.6778510145898949e-02  9.4644254832457232e-03  4.2149083908086917e-03  1.0550098217672501e-03  -1.1447090086831379e-15  9.9999999999999978e-01  9.9891377851525431e-01  9.9565924450897469e-01  9.9024887885001101e-01  9.8270370186979739e-01  9.7305347329894876e-01  9.6133679152199558e-01  9.4760119839885160e-01  9.3190307313447851e-01  9.1430774055614061e-01  8.9488931710522812e-01  8.7373122892413191e-01  8.5092645966509683e-01  8.2657703663067739e-01  8.0079407738261488e-01  7.7369739629219125e-01  7.4541426656840570e-01  7.1607803515179036e-01  6.8582689697710952e-01  6.5480252542643069e-01  6.2314887973681188e-01  5.9101090683099944e-01  5.5853352811215506e-01  5.2586119985676960e-01  4.9313654168153526e-01  4.6049969659328627e-01  4.2808858124087917e-01  3.9603702091799875e-01  3.6447588533637715e-01  3.3353188677867696e-01  3.0332666712105366e-01  2.7397824478402372e-01  2.4560062484150350e-01  2.1830363414353726e-01  1.9219375445463946e-01  1.6737405467650149e-01  1.4394385366710191e-01  1.2199818097183188e-01  1.0162729567391054e-01  8.2916138438232381e-02  6.5943926508899603e-02  5.0783657750982973e-02  3.7501668483116216e-02  2.6157012934609175e-02  1.6801178139508804e-02  9.4775739978529821e-03  4.2208922931363411e-03  1.0565281555083501e-03  -1.0415772378861387e-15  1.0000000000000007e+00  9.9891564810609690e-01  9.9566661581593041e-01  9.9026509443939237e-01  9.8273170773329899e-01  9.7309582357542790e-01  9.6139577757157013e-01  9.4767899459075544e-01  9.3200180679209654e-01  9.1442969744060676e-01  8.9503724867612033e-01  8.7390767708203543e-01  8.5113370642025554e-01  8.2681719563131395e-01  8.0106836888722321e-01  7.7400607607378880e-01  7.4575638480953466e-01  7.1645175939317929e-01  6.8622928975134323e-01  6.5522951292105425e-01  6.2359575664265554e-01  5.9147233915538433e-01  5.5900372648532293e-01  5.2633397960185790e-01  4.9360594548748871e-01  4.6096012679172910e-01  4.2853475758075654e-01  3.9646439770713032e-01  3.6488051761879986e-01  3.3391064307101720e-01  3.0367736703908005e-01  2.7429951627307431e-01  2.4589177613012922e-01  2.1856468320418543e-01  1.9242521114738090e-01  1.6757695585173224e-01  1.4411966504220747e-01  1.2214872194023776e-01  1.0175445817274462e-01  8.3021824513120845e-02  6.6029945656822298e-02  5.0851737733595130e-02  3.7553453795724917e-02  2.6194238278517780e-02  1.6825780954287915e-02  9.4917992591840861e-03  4.2273479030547649e-03  1.0581629844272657e-03  -1.1917800620647478e-15  9.9999999999999944e-01  9.9891766461193343e-01  9.9567457540669468e-01  9.9028263050110832e-01  9.8276205280755169e-01  9.7314179035766257e-01  9.6145985150308455e-01  9.4776350889649130e-01  9.3210927713129865e-01  9.1456266011098286e-01  8.9519832265549171e-01  8.7409989085652418e-01  8.5135956037056471e-01  8.2707875234224948e-01  8.0136726492501054e-01  7.7434270650606207e-01  7.4613016568575397e-01  7.1686067842208445e-01  6.8667037844602197e-01  6.5569875519796972e-01  6.2408788679894844e-01  5.9198153760195760e-01  5.5952370714771205e-01  5.2685804040231832e-01  4.9412723793285934e-01  4.6147217712534194e-01  4.2903150095233206e-01  3.9694050754808125e-01  3.6533151594746088e-01  3.3433278700786850e-01  3.0406799581728222e-01  2.7465698611010197e-01  2.4621530281625531e-01  2.1885421858451712e-01  1.9268139469142820e-01  1.6780107726586369e-01  1.4431346583616661e-01  1.2231428746310695e-01  1.0189395936176633e-01  8.3137403545981980e-02  6.6123707628227016e-02  5.0925672626714026e-02  3.7609503414894961e-02  2.6234403046231092e-02  1.6852250525372398e-02  9.5070589553945990e-03  4.2342583169319914e-03  1.0599112124329356e-03  -7.6924305789335464e-16  1.0000000000000004e+00  9.9891980116962975e-01  9.9568302059496538e-01  9.9030127289231462e-01  9.8279438539535036e-01  9.7319089750375998e-01  9.6152847765641192e-01  9.4785419240986080e-01  9.3222454701407542e-01  9.1470539708247012e-01  8.9537144218005138e-01  8.7430618394030291e-01  8.5160198882858940e-01  8.2735944359122804e-01  8.0168781420201185e-01  7.7470380763914370e-01  7.4653130745574359e-01  7.1730008611666207e-01  6.8714491488082952e-01  6.5620418885745602e-01  6.2461901500285688e-01  5.9253210450538840e-01  5.6008687391885081e-01  5.2742661144917058e-01  4.9469387734281239e-01  4.6202968657566945e-01  4.2957311353478933e-01  3.9746028397508559e-01  3.6582433393893243e-01  3.3479442261164161e-01  3.0449532805134000e-01  2.7504792057983701e-01  2.4656888931512674e-01  2.1917038290507404e-01  1.9296092230860382e-01  1.6804541440636470e-01  1.4452452338220809e-01  1.2249428699687437e-01  1.0204535347965968e-01  8.3262660280397777e-02  6.6225099443694035e-02  5.1005415968709077e-02  3.7669783195123881e-02  2.6277464295202307e-02  1.6880526023999826e-02  9.5233046778831539e-03  4.2415993464659614e-03  1.0617663850953001e-03  -1.2015641260820164e-15  1.0000000000000002e+00  9.9892203452887429e-01  9.9569185594220122e-01  9.9032081085470647e-01  9.8282834580032419e-01  9.7324261559590464e-01  9.6160097327122229e-01  9.4795025012608713e-01  9.3234692642106953e-01  9.1485696102806058e-01  8.9555521376919556e-01  8.7452516703469596e-01  8.5185892242135175e-01  8.2765692192870399e-01  8.0202742333327870e-01  7.7508626395615965e-01  7.4695620882969416e-01  7.1776574013744965e-01  6.8764811548458560e-01  6.5674063478408262e-01  6.2518327812792551e-01  5.9311782392222845e-01  5.6068699734489547e-01  5.2803349228723373e-01  4.9529967184678264e-01  4.6262675345112481e-01  4.3015412070837211e-01  3.9801880056279987e-01  3.6635456027534208e-01  3.3529166083233225e-01  3.0495603354622475e-01  2.7546961309715806e-01  2.4695033124550014e-01  2.1951144292612679e-01  1.9326237585322276e-01  1.6830877379234807e-01  1.4475183599330621e-01  1.2268788935206160e-01  1.0220787195566988e-01  8.3396814056835439e-02  6.6333477606068392e-02  5.1090461413940379e-02  3.7733871413605270e-02  2.6323095450690715e-02  1.6910405863814166e-02  9.5404383586295185e-03  4.2493281710092217e-03  1.0637171584911573e-03  -1.0727907447620370e-15  1.0000000000000000e+00  9.9892434787246887e-01  9.9570101830836910e-01  9.9034110696219546e-01  9.8286371062370514e-01  9.7329659931354950e-01  9.6167679570477493e-01  9.4805094817405855e-01  9.3247546867385578e-01  9.1501631114472493e-01  8.9574844913807217e-01  8.7475539852454187e-01  8.5212898460765230e-01  8.2796924614400991e-01  8.0238379677916305e-01  7.7548743503800222e-01  7.4740172154822471e-01  7.1825387621547421e-01  6.8817580548506663e-01  6.5730337565625740e-01  6.2577563475683706e-01  5.9373335309466291e-01  5.6131839576552356e-01  5.2867294271872212e-01  4.9593904774507436e-01  4.6325799041497834e-01  4.3076952944354790e-01  3.9861130279689694e-01  3.6691797637224532e-01  3.3582075164321495e-01  3.0544684815668943e-01  2.7591935075208290e-01  2.4735740252737368e-01  2.1987555203704937e-01  1.9358424358346360e-01  1.6858990591865081e-01  1.4499435875976827e-01  1.2289431627050390e-01  1.0238097854957558e-01  8.3539427876958741e-02  6.6448417907046878e-02  5.1180412829962177e-02  3.7801466785329751e-02  2.6371093983654600e-02  1.6941771252630