<?xml version="1.0"?>
<VTKFile type="UnstructuredGrid"  version="0.1"  >
<UnstructuredGrid>
<Piece  NumberOfPoints="3160" NumberOfCells="5316">
<Points>
<DataArray  type="Float64"  NumberOfComponents="3"  format="ascii">1.25 0 0  1.249623523370255 0.03067653565364036 0  1.248494320256466 0.06133459290927252 0  1.246613070848363 0.09195570449958429 0  1.243980908340246 0.1225214254119508 0  1.240599418248387 0.1530133439990203 0  1.236470637455976 0.1834130930692022 0  1.231597052986177 0.2137023609503765 0  1.225981600504038 0.2438629025201603 0  1.219627662548161 0.2738765501960873 0  1.21253906649318 0.3037252248790798 0  1.2047200822443 0.333390946843623 0  1.196175419665261 0.3628558465680779 0  1.186910225741296 0.3921021754986144 0  1.176930081478776 0.4211123167402751 0  1.166240998543424 0.4498687956687352 0  1.154849415639108 0.4783542904563622 0  1.142762194629413 0.5065516425062373 0  1.129986616404304 0.5344438667878526 0  1.116530376494394 0.5620141620682582 0  1.102401580435444 0.5892459210324971 0  1.087608738885889 0.61612274028723 0  1.07216076250034 0.642628430241527 0  1.056066956562134 0.6687470248588714 0  1.039337015378182 0.6944627912745027 0  1.02198101643948 0.7197602392723067 0  1.004009414350806 0.7446241306155417 0  0.9854330345332579 0.7690394882257835 0  0.9662630667034212 0.7929916052045569 0  0.9465110581331058 0.8164660536922209 0  0.9261889066936989 0.8394486935587729 0  0.9053088536893338 0.8619256809213336 0  0.8838834764831844 0.8838834764831843 0  0.8619256809213337 0.9053088536893337 0  0.8394486935587729 0.9261889066936989 0  0.8164660536922209 0.9465110581331055 0  0.7929916052045569 0.9662630667034212 0  0.7690394882257835 0.9854330345332578 0  0.7446241306155419 1.004009414350806 0  0.7197602392723067 1.02198101643948 0  0.6944627912745028 1.039337015378182 0  0.6687470248588716 1.056066956562134 0  0.642628430241527 1.07216076250034 0  0.6161227402872301 1.087608738885889 0  0.5892459210324973 1.102401580435444 0  0.5620141620682583 1.116530376494394 0  0.5344438667878527 1.129986616404304 0  0.5065516425062373 1.142762194629413 0  0.4783542904563623 1.154849415639108 0  0.4498687956687353 1.166240998543424 0  0.4211123167402751 1.176930081478776 0  0.3921021754986145 1.186910225741296 0  0.3628558465680779 1.196175419665261 0  0.333390946843623 1.2047200822443 0  0.30372522487908 1.21253906649318 0  0.2738765501960872 1.219627662548161 0  0.2438629025201604 1.225981600504038 0  0.2137023609503767 1.231597052986177 0  0.1834130930692022 1.236470637455976 0  0.1530133439990203 1.240599418248387 0  0.122521425411951 1.243980908340246 0  0.09195570449958432 1.246613070848363 0  0.06133459290927266 1.248494320256466 0  0.03067653565364033 1.249623523370255 0  7.654042494670958e-17 1.25 0  -0.03067653565364018 1.249623523370255 0  -0.06133459290927251 1.248494320256466 0  -0.09195570449958416 1.246613070848363 0  -0.1225214254119508 1.243980908340246 0  -0.1530133439990202 1.240599418248387 0  -0.1834130930692021 1.236470637455976 0  -0.2137023609503766 1.231597052986177 0  -0.2438629025201602 1.225981600504038 0  -0.2738765501960871 1.219627662548161 0  -0.3037252248790798 1.21253906649318 0  -0.3333909468436229 1.2047200822443 0  -0.3628558465680777 1.196175419665261 0  -0.3921021754986143 1.186910225741296 0  -0.4211123167402749 1.176930081478776 0  -0.4498687956687352 1.166240998543424 0  -0.4783542904563621 1.154849415639108 0  -0.5065516425062372 1.142762194629413 0  -0.5344438667878524 1.129986616404304 0  -0.5620141620682584 1.116530376494394 0  -0.5892459210324972 1.102401580435444 0  -0.61612274028723 1.087608738885889 0  -0.642628430241527 1.07216076250034 0  -0.6687470248588713 1.056066956562134 0  -0.6944627912745025 1.039337015378182 0  -0.7197602392723067 1.02198101643948 0  -0.7446241306155417 1.004009414350806 0  -0.7690394882257834 0.9854330345332579 0  -0.7929916052045567 0.9662630667034213 0  -0.8164660536922207 0.9465110581331059 0  -0.8394486935587731 0.9261889066936988 0  -0.8619256809213337 0.9053088536893337 0  -0.8838834764831843 0.8838834764831844 0  -0.9053088536893334 0.8619256809213338 0  -0.9261889066936986 0.8394486935587732 0  -0.9465110581331058 0.8164660536922208 0  -0.9662630667034212 0.7929916052045569 0  -0.9854330345332578 0.7690394882257836 0  -1.004009414350806 0.7446241306155419 0  -1.02198101643948 0.7197602392723068 0  -1.039337015378182 0.6944627912745027 0  -1.056066956562134 0.6687470248588714 0  -1.07216076250034 0.6426284302415273 0  -1.087608738885889 0.6161227402872302 0  -1.102401580435444 0.5892459210324973 0  -1.116530376494394 0.5620141620682586 0  -1.129986616404304 0.5344438667878525 0  -1.142762194629413 0.5065516425062374 0  -1.154849415639108 0.4783542904563624 0  -1.166240998543424 0.4498687956687354 0  -1.176930081478776 0.4211123167402754 0  -1.186910225741296 0.3921021754986143 0  -1.196175419665261 0.362855846568078 0  -1.2047200822443 0.3333909468436231 0  -1.21253906649318 0.3037252248790801 0  -1.219627662548161 0.2738765501960876 0  -1.225981600504038 0.2438629025201608 0  -1.231597052986177 0.2137023609503765 0  -1.236470637455976 0.1834130930692023 0  -1.240599418248387 0.1530133439990204 0  -1.243980908340246 0.122521425411951 0  -1.246613070848363 0.09195570449958466 0  -1.248494320256466 0.06133459290927246 0  -1.249623523370255 0.03067653565364041 0  -1.25 1.530808498934192e-16 0  -1.249623523370255 -0.0306765356536401 0  -1.248494320256466 -0.06133459290927215 0  -1.246613070848363 -0.09195570449958437 0  -1.243980908340246 -0.1225214254119507 0  -1.240599418248387 -0.1530133439990201 0  -1.236470637455976 -0.183413093069202 0  -1.231597052986177 -0.2137023609503762 0  -1.225981600504038 -0.2438629025201605 0  -1.219627662548161 -0.2738765501960873 0  -1.21253906649318 -0.3037252248790798 0  -1.2047200822443 -0.3333909468436228 0  -1.196175419665261 -0.3628558465680776 0  -1.186910225741296 -0.392102175498614 0  -1.176930081478776 -0.4211123167402752 0  -1.166240998543424 -0.4498687956687352 0  -1.154849415639108 -0.4783542904563621 0  -1.142762194629413 -0.5065516425062371 0  -1.129986616404304 -0.5344438667878523 0  -1.116530376494394 -0.5620141620682583 0  -1.102401580435444 -0.5892459210324971 0  -1.087608738885889 -0.6161227402872299 0  -1.07216076250034 -0.6426284302415269 0  -1.056066956562134 -0.6687470248588712 0  -1.039337015378182 -0.6944627912745025 0  -1.02198101643948 -0.7197602392723067 0  -1.004009414350806 -0.7446241306155416 0  -0.9854330345332579 -0.7690394882257834 0  -0.9662630667034213 -0.7929916052045566 0  -0.946511058133106 -0.8164660536922207 0  -0.9261889066936989 -0.8394486935587731 0  -0.9053088536893338 -0.8619256809213336 0  -0.8838834764831847 -0.8838834764831843 0  -0.8619256809213338 -0.9053088536893334 0  -0.8394486935587733 -0.9261889066936986 0  -0.8164660536922214 -0.9465110581331053 0  -0.7929916052045574 -0.9662630667034209 0  -0.7690394882257841 -0.9854330345332574 0  -0.7446241306155414 -1.004009414350806 0  -0.7197602392723066 -1.02198101643948 0  -0.6944627912745027 -1.039337015378182 0  -0.6687470248588716 -1.056066956562134 0  -0.6426284302415273 -1.07216076250034 0  -0.6161227402872302 -1.087608738885889 0  -0.5892459210324973 -1.102401580435444 0  -0.5620141620682586 -1.116530376494394 0  -0.5344438667878531 -1.129986616404304 0  -0.506551642506238 -1.142762194629413 0  -0.4783542904563629 -1.154849415639108 0  -0.4498687956687349 -1.166240998543424 0  -0.4211123167402749 -1.176930081478776 0  -0.3921021754986143 -1.186910225741296 0  -0.3628558465680781 -1.196175419665261 0  -0.3333909468436231 -1.2047200822443 0  -0.3037252248790802 -1.21253906649318 0  -0.2738765501960876 -1.219627662548161 0  -0.2438629025201608 -1.225981600504038 0  -0.2137023609503771 -1.231597052986176 0  -0.1834130930692029 -1.236470637455976 0  -0.1530133439990199 -1.240599418248387 0  -0.1225214254119506 -1.243980908340246 0  -0.09195570449958419 -1.246613070848363 0  -0.06133459290927254 -1.248494320256466 0  -0.03067653565364049 -1.249623523370255 0  -2.296212748401287e-16 -1.25 0  0.03067653565364003 -1.249623523370255 0  0.06133459290927207 -1.248494320256466 0  0.09195570449958373 -1.246613070848363 0  0.1225214254119501 -1.243980908340246 0  0.1530133439990195 -1.240599418248387 0  0.1834130930692024 -1.236470637455976 0  0.2137023609503766 -1.231597052986177 0  0.2438629025201604 -1.225981600504038 0  0.2738765501960872 -1.219627662548161 0  0.3037252248790797 -1.21253906649318 0  0.3333909468436227 -1.2047200822443 0  0.3628558465680776 -1.196175419665261 0  0.3921021754986139 -1.186910225741296 0  0.4211123167402745 -1.176930081478776 0  0.4498687956687345 -1.166240998543424 0  0.4783542904563625 -1.154849415639108 0  0.5065516425062375 -1.142762194629413 0  0.5344438667878527 -1.129986616404304 0  0.5620141620682583 -1.116530376494394 0  0.589245921032497 -1.102401580435444 0  0.6161227402872298 -1.087608738885889 0  0.6426284302415269 -1.07216076250034 0  0.6687470248588712 -1.056066956562134 0  0.6944627912745023 -1.039337015378182 0  0.7197602392723061 -1.02198101643948 0  0.7446241306155411 -1.004009414350806 0  0.7690394882257838 -0.9854330345332576 0  0.792991605204557 -0.9662630667034211 0  0.8164660536922209 -0.9465110581331058 0  0.8394486935587729 -0.9261889066936989 0  0.8619256809213336 -0.9053088536893338 0  0.8838834764831842 -0.8838834764831847 0  0.9053088536893333 -0.8619256809213339 0  0.9261889066936986 -0.8394486935587733 0  0.9465110581331053 -0.8164660536922214 0  0.9662630667034209 -0.7929916052045574 0  0.9854330345332574 -0.7690394882257843 0  1.004009414350806 -0.7446241306155416 0  1.02198101643948 -0.7197602392723066 0  1.039337015378182 -0.6944627912745027 0  1.056066956562134 -0.6687470248588716 0  1.07216076250034 -0.6426284302415274 0  1.087608738885889 -0.6161227402872304 0  1.102401580435443 -0.5892459210324974 0  1.116530376494394 -0.5620141620682587 0  1.129986616404304 -0.5344438667878532 0  1.142762194629413 -0.50655164250623
[...]
<PointData  Scalars="f_2430617"> 
<DataArray  type="Float64"  Name="f_2430617"  format="ascii">2.0964500929384435e+00  2.4463643417956296e+00  2.5950390384555706e+00  2.8966918624853402e+00  3.1771431163905053e+00  3.4684330712850517e+00  3.7584285582553871e+00  4.0713749653935780e+00  4.2298673102727351e+00  4.5665314470639986e+00  4.7015521296519918e+00  4.9272111281551725e+00  5.2577972688044436e+00  5.4299531328653945e+00  5.7475772599403481e+00  5.9220793521897921e+00  6.2396122524921580e+00  6.4155022688793881e+00  6.7111326854193027e+00  6.8466426268259903e+00  7.1556053712119683e+00  7.3578707013990776e+00  7.5997854899153108e+00  7.8297002491480976e+00  8.0986616295314118e+00  8.3086106167945264e+00  8.6237535775621943e+00  8.7841575602517104e+00  9.1125293761622057e+00  9.3698486041304214e+00  9.6451795728210108e+00  9.8618180195056961e+00  1.0098170248856045e+01  1.0209506687246796e+01  1.0405768877469189e+01  1.0589288105706292e+01  1.0802921751782753e+01  1.1058140147825567e+01  1.1280492441694001e+01  1.1671572328997799e+01  1.1744236668064771e+01  1.2210184506586391e+01  1.2353575319292935e+01  1.2658942357241971e+01  1.2850889159531025e+01  1.3059832044289601e+01  1.3361268109026600e+01  1.3436280066542578e+01  1.3799012020303701e+01  1.3981715581251068e+01  1.4266476684362093e+01  1.4503825940726959e+01  1.4833336990679669e+01  1.4984042156643074e+01  1.5311797959383313e+01  1.5497613811341076e+01  1.5800249514402374e+01  1.5987636246079928e+01  1.6306559026117032e+01  1.6405388335356896e+01  1.6854278740325473e+01  1.7126163446402458e+01  1.7378082462768507e+01  1.7699742569447611e+01  1.8192979233077260e+01  1.8122540295056382e+01  1.8944796213450644e+01  1.8876417558577405e+01  1.9524664698732405e+01  1.9507754326607174e+01  2.0256295300595504e+01  2.0668084636613518e+01  2.0695960909684864e+01  2.1607085185513785e+01  2.2031440155147898e+01  2.2448547084226817e+01  2.2409669799337816e+01  2.3960384385054716e+01  2.3129795016355065e+01  2.4281449297462160e+01  2.4504072204551360e+01  2.4859716687075395e+01  2.5408414940495938e+01  2.5744698884837938e+01  2.5866995525285393e+01  2.7162237489332767e+01  2.7195318124608594e+01  2.7605017290588297e+01  2.8894377145274014e+01  2.8988776070509925e+01  2.9203643496418167e+01  2.9849359952038231e+01  3.0540161901322815e+01  3.0967013433052507e+01  3.1565692520156087e+01  3.2125576740265423e+01  3.2613212871772355e+01  3.4153987395077003e+01  3.3777452309815821e+01  3.4416206752603379e+01  3.5014696673310638e+01  3.5728487541575184e+01  3.6139689235388843e+01  3.6666139704100381e+01  3.6605132197295781e+01  3.7434842282889250e+01  3.7754571535305196e+01  3.8245208476989831e+01  3.8666855495601226e+01  3.8551482122165758e+01  3.8539372943476607e+01  3.8072899506505955e+01  3.7233495322949352e+01  3.6371894609149010e+01  3.5208518945025084e+01  3.3979067450650938e+01  3.2023623235905561e+01  2.9621981348023319e+01  2.7278959432549318e+01  2.4223087266523116e+01  2.1010007561817091e+01  1.7195989619456832e+01  1.3043156349482075e+01  8.7738552702177781e+00  4.1134875688944827e+00  -9.2241076017526469e-01  -6.1334610150670326e+00  -1.1121923193132439e+01  -1.6287656876889937e+01  -2.1440829020460829e+01  -2.6152232522857972e+01  -3.1245472397278967e+01  -3.5747044613344833e+01  -3.9538661522742963e+01  -4.3070282877062368e+01  -4.6093558373376851e+01  -4.9111022904602088e+01  -5.0964421258061257e+01  -5.2186613894737548e+01  -5.3549484099855505e+01  -5.4258599238872357e+01  -5.4761205194898253e+01  -5.5121277278439038e+01  -5.4690886881168062e+01  -5.4212107171774484e+01  -5.3392619884262189e+01  -5.2574679568004335e+01  -5.1171738844771610e+01  -4.9994779408061852e+01  -4.8705200420971799e+01  -4.7405059025841389e+01  -4.5770799951421715e+01  -4.4891640231575444e+01  -4.3393650252517510e+01  -4.1975492141405269e+01  -4.0661999987252962e+01  -3.9333952038114489e+01  -3.7788211760754535e+01  -3.6312117266921419e+01  -3.5052354482616671e+01  -3.3602948481918887e+01  -3.2215015795216949e+01  -3.1397620858191456e+01  -3.0491272169679903e+01  -2.9522864051141205e+01  -2.8244654777588508e+01  -2.7246040987689607e+01  -2.6361845188976243e+01  -2.5406420841527801e+01  -2.4691098867936955e+01  -2.3936831130615047e+01  -2.2560177204896789e+01  -2.2167248035403983e+01  -2.1593618355365546e+01  -2.0280094553003902e+01  -1.9989539128266433e+01  -2.0024796959819717e+01  -1.8448793302983681e+01  -1.9143515714894054e+01  -1.7531425979858248e+01  -1.7850643860632889e+01  -1.6799796420255198e+01  -1.6845791426626462e+01  -1.6839902355279900e+01  -1.6502802107183090e+01  -1.5715859179577386e+01  -1.5839535516284750e+01  -1.5445497100343932e+01  -1.5193733120241566e+01  -1.4532901776848984e+01  -1.4619101624997809e+01  -1.4337011363913970e+01  -1.3798944251670193e+01  -1.3817616430539390e+01  -1.3319824385113550e+01  -1.3288588827330878e+01  -1.3063417863962506e+01  -1.2587826680046462e+01  -1.2612505281265305e+01  -1.2296912745257554e+01  -1.2021400021620570e+01  -1.1891514742380423e+01  -1.1541806203610680e+01  -1.1474887783392214e+01  -1.1103884228194367e+01  -1.0751357675394400e+01  -1.0670396486447324e+01  -1.0332657810572176e+01  -1.0141382484318994e+01  -9.9483324893051570e+00  -9.6374173975179467e+00  -9.3942288746252753e+00  -9.1648381025982175e+00  -8.9852870164283978e+00  -8.6737402641649037e+00  -8.3676821286320653e+00  -8.1516848347738637e+00  -7.9820520865537032e+00  -7.5991625114765213e+00  -7.4668711160990702e+00  -7.1846456435329591e+00  -6.9436961814032054e+00  -6.5779785447306311e+00  -6.4377671985737965e+00  -6.1514729638231387e+00  -5.9515620695037397e+00  -5.7069656545383918e+00  -5.4723837733753840e+00  -5.2119049061306102e+00  -5.0107723252028036e+00  -4.7371603995776468e+00  -4.6360778591433220e+00  -4.1043506445910882e+00  -4.0414549380381466e+00  -3.6263591072115111e+00  -3.4245431274529547e+00  -3.1383480822766043e+00  -2.9242191679873248e+00  -2.7250716096808851e+00  -2.3178013345872261e+00  -2.0890374583891407e+00  -1.9234353842208298e+00  -1.5439010229781933e+00  -1.4200974145982306e+00  -1.0864334727964902e+00  -9.1044279188216160e-01  -5.8194546771453359e-01  -4.5965895001166840e-01  3.4006639190901612e-02  5.3994952003363066e-02  6.4543584397598674e-01  8.1099493865812877e-01  1.0654722693216483e+00  1.3801584846193380e+00  1.6533365335297741e+00  1.9243608859159480e+00  2.5905376299420837e+00  2.8877427025986231e+00  2.5519542693759076e+00  3.2586036789125430e+00  3.4255713991444479e+00  3.7924179483418938e+00  3.8944592478614175e+00  4.0659606344156654e+00  4.2338554354029698e+00  4.5557957001090532e+00  4.8635590419418255e+00  5.1335938655764064e+00  5.4646451239243730e+00  5.4070288561103110e+00  5.7273566725510490e+00  5.9351668616577316e+00  6.0748985196148801e+00  6.0895498021187153e+00  6.3481929707320432e+00  6.8223543523783965e+00  6.7421353719810542e+00  6.8593092395240980e+00  7.1813383026957514e+00  7.6955201360430614e+00  7.3636656706620469e+00  7.4422182061646529e+00  7.1525868072517751e+00  7.4542565561441778e+00  7.5524847487409215e+00  7.3347992628169996e+00  7.5743847593513118e+00  7.5943246309946186e+00  7.5883642480438205e+00  7.1784418150939375e+00  7.3335322954808575e+00  7.3204390127295200e+00  6.6235736875979292e+00  6.6036017258518251e+00  6.3557490279067759e+00  6.5300793712759218e+00  6.0440472891346859e+00  5.8414055566610985e+00  5.4203472545428744e+00  4.9195953446761251e+00  4.5519014831667084e+00  4.3121346335263455e+00  3.4104698114956098e+00  3.0412440647401335e+00  2.7748971255459227e+00  2.2284510482973650e+00  1.4095227786365851e+00  7.1022765580398395e-01  2.0351219612116300e-01  -3.0935776046379482e-01  -1.2383642105231298e+00  -1.7759391294584628e+00  -2.5481717254440714e+00  -3.6552955137504775e+00  -4.3450117388731373e+00  -5.1098759537468545e+00  -6.1007877880093622e+00  -7.2654327010969340e+00  -8.0062895598317869e+00  -9.0227695173419615e+00  -9.6728144640069562e+00  -1.0703061902740178e+01  -1.1346490876282111e+01  -1.2325694281964651e+01  -1.2957075357059004e+01  -1.4164001787373309e+01  -1.5689969257487864e+01  -1.6853940349406418e+01  -1.7783922727605642e+01  -1.8924648522451367e+01  -2.0512970698244388e+01  -2.1269926299322670e+01  -2.2122603844735647e+01  -2.3708916106424152e+01  -2.5379474188218815e+01  -2.6232860125372362e+01  -2.7493292292573294e+01  -2.9721752872273736e+01  -3.0506860710560396e+01  -3.1369832915931386e+01  -3.3548648019014358e+01  -3.4664802576113381e+01  -3.5653917100359308e+01  -3.7245025465108050e+01  -3.8829683028551500e+01  -4.0212422261940773e+01  -4.1085291029530595e+01  -4.2799697846222251e+01  -4.4061159075657443e+01  -4.4781618829172679e+01  -4.6914834585710253e+01  -4.7801610209530935e+01  -4.8118495501155607e+01  -4.9299947478112479e+01  -5.0361593156124385e+01  -5.1463644461714274e+01  -5.2250947286367293e+01  -5.3051072876148439e+01  -5.3025014360062769e+01  -5.3898134392351182e+01  -5.4392531043096078e+01  -5.4468745850785325e+01  -5.4904818651801094e+01  -5.5017292375766644e+01  -5.5109648152591262e+01  -5.5146505676007116e+01  -5.4783763889574566e+01  -5.4343524915187672e+01  -5.3766212454481455e+01  -5.2947304504516062e+01  -5.2324892651351448e+01  -5.1072185698376849e+01  -4.9822844966118005e+01  -4.8584943623286527e+01  -4.6782329225103027e+01  -4.4953748669714848e+01  -4.2930845105161552e+01  -4.0707625395781655e+01  -3.8079540321541046e+01  -3.5360598166060527e+01  -3.2385441746835923e+01  -2.9270314758798730e+01  -2.6143706403120969e+01  -2.3029418283798019e+01  -1.9479519705323188e+01  -1.6200061573322039e+01  -1.2559410514542879e+01  -8.7742064559288000e+00  -5.5814351969593838e+00  -2.2531982380584257e+00  1.3045890823465200e+00  4.8581437334526836e+00  8.0937711432910326e+00  1.1542820285015141e+01  1.4413622486738042e+01  1.7467665567120545e+01  2.0418421503168368e+01  2.3473561812474397e+01  2.5920736007181777e+01  2.8565586178278078e+01  3.0894057859796717e+01  3.3110895085069885e+01  3.5026930616846791e+01  3.6769804246170800e+01  3.8475842451887388e+01  4.0179138072819676e+01  4.1286125341422753e+01  4.2389784848672875e+01  4.3255614959346580e+01  4.4307815306277163e+01  4.5041040921890854e+01  4.5153686858020507e+01  4.5538921470738813e+01  4.5888387116256837e+01  4.6507075313657054e+01  4.6388389610792764e+01  4.6518309241100262e+01  4.6453448507631201e+01  4.6480839549390907e+01  4.6284795732560760e+01  4.6483524621792718e+01  4.6461889012347541e+01  4.5284456493958970e+01  4.5234859888205598e+01  4.5364612009977080e+01  4.3929972083342484e+01  4.4098529118684702e+01  4.3389788233088623e+01  4.3456243085037222e+01  4.2564290059849149e+01  4.2052794964532659e+01  4.1407470398326389e+01  4.0671123909398140e+01  4.0267114144996960e+01  4.0073428239548385e+01  3.8906788888233024e+01  3.8014006035602733e+01  3.7746073018237382e+01  3.6517468802762735e+01  3.5655368388673111e+01  3.5149182470049759e+01  3.4781339021516878e+01  3.3323357822163217e+01  3.2811200208429995e+01  3.2129392837409057e+01  3.1372595510572893e+01  2.9791186832547876e+01  2.9463554161430153e+01  2.8791877604996671e+01  2.8045696780756057e+01  2.7272102777360075e+01  2.6391126964244528e+01  2.5329917857255019e+01  2.4369843112050994e+01  2.3542384707802768e+01  2.2717829169491985e+01  2.1707236132920247e+01  2.1028059381395760e+01  2.0079150626426511e+01  1.9190662193763092e+01  1.8125292333393471e+01  1.7993119952806612e+01  1.7433024107711855e+01  1.6343302991661695e+01  1.5730575134146280e+01  1.4937944522944422e+01  1.4019427302805976e+01  1.3334109046624201e+01  1.2664140553767274e+01  1.2127940439051388e+01  1.1476085778476353e+01  1.0264871139994163e+01  9.6127733925997365e+00  9.3303917774317995e+00  8.2780209038212220e+00  7.4921010705201176e+00  7.0661734473494908e+00  6.4634455820749865e+00  6.2239137285189061e+00  5.6519436457408752e+00  5.0489508216339276e+00  4.6828463727995500e+00  4.3125591605436027e+00  3.9509533268456454e+00  3.3719586771211612e+00  3.2993609730305975e+00  2.7232017243705049e+00  2.5340855086798215e+00  1.5269536003219828e+00  2.0541794959598438e+00  1.7160488267112521e+00  1.5533967544747331e+00  1.4354755915186090e+00  1.4391522004379780e+00  1.3449131964907930e+00  1.4782118476723083e+00  1.1880810900675458e+00  1.0770856092235925e+00  1.0925366354464663e+00  1.0417187565577883e+00  1.0344555832019955e+00  1.0931971708684349e+00  1.0684357358265408e+00  1.4679963556930185e+00  1.5385554700270829e+00  1.5600946108371696e+00  1.7375221912775918e+00  1.8826959679054054e+00  2.1087007768556294e+00  2.5151604883929415e+00  2.2705732611893930e+00  2.3685758255157823e+00  2.0830317984652589e+00  3.5739902715755552e+00  5.1616951225802010e-01  5.1857412639031510e+00  -9.4299908397399201e-01  6.7191553875835428e+00  -2.4003693180191319e+00  8.6726382355143485e+00  -3.7673790055957679e+00  1.0707086370940328e+01  -5.1568903664501589e+00  1.2999948974507653e+01  -6.6005994386758733e+00  1.5268300700320470e+01  -8.4927626521432114e+00  1.7524978221810652e+01  -1.0367185910832143e+01  1.9612462197300392e+01  2.9883354389281056e+00  -1.2200705125247085e+01  1.0877576249808385e+00  4.8015114924583884e+00  -8.4313009258889637e-01  2.3367023461961542e+00  1.0225003632876346e+00  1.5852836153198584e+00  3.2379954932818098e+00  2.2001195828477513e+01  -2.8645554292940347e+00  6.4675302984358947e+00  4.3440911198366781e+00  -1.4466810987397237e+01  3.8632962899688189e-01  8.2252501889892198e+00  -4.7245528843807492e+00  6.0373391038011119e+00  -1.6748038279752919e-01  2.2010033290098638e+00  2.4023806537118826e+01  3.9551433977910437e+00  -1.2879616654569573e-01  1.9136574300701250e+00  1.0047969894162513e+01  -6.4502184000553067e+00  5.5919221594222650e+00  8.0997697496306564e+00  -1.3879413994575027e+00  -1.6747409648368517e+01  -2.1061677361142785e+00  7.4983257938191432e+00  -4.0920753236227858e+00  2.6449346541227477e+01  -8.1408518711616598e+00  1.2124506081029415e+01  1.1699929778423481e+00  1.4106169981626742e+00  -1.9201486656617845e+01  9.4217677831051159e+00  -5.9279553512501906e+00  6.2371822862846837e-01  1.0176235031487867e+01  2.6369410369807138e+00  3.7314658988895308e+00  -2.5874902194088678e+00  4.9108765034794208e+00  6.3878533820327563e+00  1.4002075079013208e+01  -9.5742047889346757e+00  2.8291493677259755e+01  1.1025564308042004e+01  -2.2144639191731073e+01  1.3680008151232728e+00  1.3312012309991614e+01  -4.3639005365926975e+00  -7.6284481342053061e+00  -6.0659405395582477e-01  3.0518274984948771e+01  4.4920047721907368e+00  1.1298054270287099e+00  1.3042412620702473e+01  1.6165361084890847e+01  -1.1303413484290738e+01  1.1608313967063772e+01  -9.3307451463013784e+00  3.0076823167968163e+00  -2.4853538488950477e+01  -5.8390241117662702e+00  1.6166761551710653e+01  6.0050814700816115e+00  1.8106221400885495e+01  8.3456315663999643e+00  -1.5020939913812728e+00  -2.2454908524754447e+00  -1.8453598734082224e-02  3.2431953011953517e+01  1.4842743181299639e+01  -1.0731734177255072e+01  -2.9837982515758590e+00  -1.2801488423978906e+01  7.6862603641083282e+00  -2.8060854694446650e+01  2.6911468272804373e+00  4.5366005674367358e+00  1.5607611418293519e+00  1.8978450427274556e+01  -1.6334864303478682e+00  3.8470265936502424e-01  -9.1346816342020554e-01  -8.9334352811642610e+00  6.3038162729833163e+00  1.1562652505677740e+01  1.7703076446597601e+00  3.3782269319005689e+00  3.4259684435007060e+01  1.4333914177602312e+01  5.7831171498477243e+00  2.3631645261958876e+00  1.6847514873704956e+01  7.1352169457271177e+00  -6.5745265400715160e+00  2.1610387527390468e+01  1.9865976338286494e+01  2.4848815360738050e+00  2.3066244789789581e+00  5.2276072306097658e+00  -4.2813877282915600e+00  -3.1545451527771025e+01  1.5509885269126347e+00  5.3519340904977775e-01  9.3386735851455729e+00  1.6816118437079093e+00  2.2015641192382837e+01  -7.3242660444638508e-01  -1.2157033848892866e+01  1.7413432876456765e+00  -1.1198795767718140e+01  1.9977697205893949e+00  1.9971182823802278e+00  3.5549963261663414e+01  -1.4305400437262566e+01  -3.7647697677111993e+00  -2.9139504410889416e+00  2.7074677325669283e+00  9.0202976233817331e+00  1.7250618239818423e+00  2.1193073207163802e+00  3.4204785118397001e+00  5.2909159777661675e-02  4.3077628061758846e+00  -5.8919616067015212e+00  8.7588538576167476e+00  8.1833393518368851e+00  -2.3255340839418973e-01  -4.4541896834106405e+00  6.7802799998337049e+00  5.1184212916201774e+00  2.5589215648744732e+00  -3.8383712840914304e+00  -5.7245619955451277e+00  -4.9009847655910450e+00  -1.9146980370867808e+00  1.8758179155259256e+01  -4.3044316818273289e+00  1.7430047118156015e+01  -1.8365734292122875e+00  3.5059084950714174e+00  2.5815720519325023e+00  2.6964116403148193e+00  -3.1545887247993023e+00  1.2024691872904019e+00  -2.1640448602115664e-01  9.5879262506728224e+00  1.3895426294492683e+01  -1.6222081577437514e+01  -3.4318507198777631e+01  2.4185302797015513e+01  1.0103471126486198e+01  7.4558366141843848e+00  -6.5542630217321984e-01  2.1941790993180201e+00  -6.8072993808121423e+00  -7.5824530404209645e+00  -1.3809463195282971e+01  4.1524959418648724e+00  3.8077815495878564e+00  -4.0245004418445607e+00  5.1916323734997505e+00  2.5178951032690597e+00  2.6900699439493474e+00  -1.3608903857196614e+01  3.7750039696673660e+01  2.3824546335213032e+01  1.0682565912029913e+01  2.9489670259199947e+00  2.9052747111452555e+00  1.0204899594667435e+01  9.5467435575027559e-01  -2.2300250728924476e+00  7.5358763453354205e-01  2.0569966879998226e+01  1.8028930229963371e+00  4.3671038812439829e+00  5.9324458474577471e+00  -3.7137983974636178e+01  -7.9190224974682470e+00  6.2097339956445046e+00  -1.3938848144470368e+00  -1.1763838009486440e+00  1.6171484914083372e+01  -5.8182793637385233e+00  2.7350224273372884e+01  1.7168128012122905e+00  1.1779336272235277e+01  1.2652831257306532e+01  3.9898165161124042e+00  -1.5482484666877918e+01  -8.9773428983898196e+00  7.4648130186689938e+00  9.3645670658802391e+00  3.9050760640399801e+01  8.1772739382125366e+00  -8.5632419273522906e+00  -9.3324704297496766e+00  2.5812434399822827e+01  4.2775484749719181e+00  2.3074361691914032e+00  5.7154477075851569e+00  2.3057609570951736e+00  5.3030898230116685e+00  -1.7335705528351472e+01  -1.7973275517300639e+01  6.5926882521238230e+00  1.5963191176760765e+00  -5.5833204070439491e-01  -1.1801712833325764e+01  1.1446597776884783e+01  -1.9922835726442504e+01  -6.3333229310636252e+00  2.2804972381402177e+01  -4.0113048387427341e+01  2.9417238112181270e+01  1.2015000318370394e+01  2.6667475854334182e+00  6.8369010406143165e+00  1.8078389575654681e+00  3.0815429474029581e+00  2.5744139295430575e+01  5.9704008559391584e+00  -2.0288802455914791e+01  1.2417315141262460e+01  1.2941120688770860e+00  1.8318672464913693e+01  4.0199682061459725e+01  -7.2608633394794850e+00  -2.2670761677706257e+00  -7.0191367970863094e+00  7.7925305134305853e+00  1.4647213056654223e+01  -7.6125180367617693e+00  -1.5039239910112277e+01  -1.0836219345906105e+01  -1.0177216526158215e+01  1.4294917361573116e+01  1.3670070356717572e+01  -4.3047915366412880e+01  -1.9228909765409206e+00  -6.7203818014430694e-01  -1.1347343017086548e+01  -1.0147776838834137e+01  9.5582436271986246e+00  8.1081015804221934e+00  -4.5270132681364901e+00  -3.5005133075758255e+00  6.0165552631048271e+00  2.0119561975808924e+01  2.6811229886127079e+00  2.1224386859625014e+01  -5.1293828012104008e+00  2.2707125847093060e+01  -2.2384351239819939e+01  2.6919782348020565e+01  8.0153710332503216e+00  7.1569209703374037e+00  -1.2423528505269628e+01  1.1647698233870010e+01  -4.3679057992491988e+00  9.9207291105831885e+00  4.0740193767129668e+01  2.4298833300102974e+01  -1.8668974147147914e+01  -5.2304809295365455e+00  -9.9885469296129852e+00  1.2836703826739262e+01  -1.0948751629377944e-01  7.8882220049547125e-01  9.6628910779752282e+00  2.3258151206818535e+01  1.5442689309681837e+01  2.1716370590340213e+00  3.4212847070152335e+00  -1.3194518307011000e+01  8.5668478080023878e+00  1.9448753200437212e+00  1.2111276890016405e+00  3.2143