<?xml version="1.0"?>
<VTKFile type="UnstructuredGrid"  version="0.1"  >
<UnstructuredGrid>
<Piece  NumberOfPoints="2401" NumberOfCells="4608">
<Points>
<DataArray  type="Float64"  NumberOfComponents="3"  format="ascii">0 0 0  0.001070538380698371 0 0  0.004277569313095364 0 0  0.009607359798386061 0 0  0.01703708685546806 0 0  0.02653493525245065 0 0  0.03806023374436157 0 0  0.05156362923366253 0 0  0.06698729810778931 0 0  0.08426519384873815 0 0  0.1033233298543955 0 0  0.1240800962605269 0 0  0.1464466094067445 0 0  0.1703270924499866 0 0  0.1956192854956637 0 0  0.2222148834902257 0 0  0.2500000000000299 0 0  0.2788556548905322 0 0  0.308658283817491 0 0  0.339280267348458 0 0  0.3705904774487813 0 0  0.4024548389919803 0 0  0.4347369038900211 0 0  0.467298435384978 0 0  0.5000000000000517 0 0  0.5327015646151253 0 0  0.5652630961100813 0 0  0.5975451610081212 0 0  0.6294095225513188 0 0  0.6607197326516399 0 0  0.6913417161826045 0 0  0.7211443451095605 0 0  0.7500000000000597 0 0  0.7777851165098603 0 0  0.8043807145044185 0 0  0.829672907550091 0 0  0.8535533905933287 0 0  0.8759199037395413 0 0  0.8966766701456674 0 0  0.9157348061513193 0 0  0.9330127018922625 0 0  0.9484363707663832 0 0  0.961939766255678 0 0  0.9734650647475827 0 0  0.9829629131445586 0 0  0.9903926402016341 0 0  0.9957224306869181 0 0  0.9989294616193084 0 0  1 0 0  0 0.02083333333333333 0  0.001070538380698371 0.02083333333333333 0  0.004277569313095364 0.02083333333333333 0  0.009607359798386061 0.02083333333333333 0  0.01703708685546806 0.02083333333333333 0  0.02653493525245065 0.02083333333333333 0  0.03806023374436157 0.02083333333333333 0  0.05156362923366253 0.02083333333333333 0  0.06698729810778931 0.02083333333333333 0  0.08426519384873815 0.02083333333333333 0  0.1033233298543955 0.02083333333333333 0  0.1240800962605269 0.02083333333333333 0  0.1464466094067445 0.02083333333333333 0  0.1703270924499866 0.02083333333333333 0  0.1956192854956637 0.02083333333333333 0  0.2222148834902257 0.02083333333333333 0  0.2500000000000299 0.02083333333333333 0  0.2788556548905322 0.02083333333333333 0  0.308658283817491 0.02083333333333333 0  0.339280267348458 0.02083333333333333 0  0.3705904774487813 0.02083333333333333 0  0.4024548389919803 0.02083333333333333 0  0.4347369038900211 0.02083333333333333 0  0.467298435384978 0.02083333333333333 0  0.5000000000000517 0.02083333333333333 0  0.5327015646151253 0.02083333333333333 0  0.5652630961100813 0.02083333333333333 0  0.5975451610081212 0.02083333333333333 0  0.6294095225513188 0.02083333333333333 0  0.6607197326516399 0.02083333333333333 0  0.6913417161826045 0.02083333333333333 0  0.7211443451095605 0.02083333333333333 0  0.7500000000000597 0.02083333333333333 0  0.7777851165098603 0.02083333333333333 0  0.8043807145044185 0.02083333333333333 0  0.829672907550091 0.02083333333333333 0  0.8535533905933287 0.02083333333333333 0  0.8759199037395413 0.02083333333333333 0  0.8966766701456674 0.02083333333333333 0  0.9157348061513193 0.02083333333333333 0  0.9330127018922625 0.02083333333333333 0  0.9484363707663832 0.02083333333333333 0  0.961939766255678 0.02083333333333333 0  0.9734650647475827 0.02083333333333333 0  0.9829629131445586 0.02083333333333333 0  0.9903926402016341 0.02083333333333333 0  0.9957224306869181 0.02083333333333333 0  0.9989294616193084 0.02083333333333333 0  1 0.02083333333333333 0  0 0.04166666666666666 0  0.001070538380698371 0.04166666666666666 0  0.004277569313095364 0.04166666666666666 0  0.009607359798386061 0.04166666666666666 0  0.01703708685546806 0.04166666666666666 0  0.02653493525245065 0.04166666666666666 0  0.03806023374436157 0.04166666666666666 0  0.05156362923366253 0.04166666666666666 0  0.06698729810778931 0.04166666666666666 0  0.08426519384873815 0.04166666666666666 0  0.1033233298543955 0.04166666666666666 0  0.1240800962605269 0.04166666666666666 0  0.1464466094067445 0.04166666666666666 0  0.1703270924499866 0.04166666666666666 0  0.1956192854956637 0.04166666666666666 0  0.2222148834902257 0.04166666666666666 0  0.2500000000000299 0.04166666666666666 0  0.2788556548905322 0.04166666666666666 0  0.308658283817491 0.04166666666666666 0  0.339280267348458 0.04166666666666666 0  0.3705904774487813 0.04166666666666666 0  0.4024548389919803 0.04166666666666666 0  0.4347369038900211 0.04166666666666666 0  0.467298435384978 0.04166666666666666 0  0.5000000000000517 0.04166666666666666 0  0.5327015646151253 0.04166666666666666 0  0.5652630961100813 0.04166666666666666 0  0.5975451610081212 0.04166666666666666 0  0.6294095225513188 0.04166666666666666 0  0.6607197326516399 0.04166666666666666 0  0.6913417161826045 0.04166666666666666 0  0.7211443451095605 0.04166666666666666 0  0.7500000000000597 0.04166666666666666 0  0.7777851165098603 0.04166666666666666 0  0.8043807145044185 0.04166666666666666 0  0.829672907550091 0.04166666666666666 0  0.8535533905933287 0.04166666666666666 0  0.8759199037395413 0.04166666666666666 0  0.8966766701456674 0.04166666666666666 0  0.9157348061513193 0.04166666666666666 0  0.9330127018922625 0.04166666666666666 0  0.9484363707663832 0.04166666666666666 0  0.961939766255678 0.04166666666666666 0  0.9734650647475827 0.04166666666666666 0  0.9829629131445586 0.04166666666666666 0  0.9903926402016341 0.04166666666666666 0  0.9957224306869181 0.04166666666666666 0  0.9989294616193084 0.04166666666666666 0  1 0.04166666666666666 0  0 0.0625 0  0.001070538380698371 0.0625 0  0.004277569313095364 0.0625 0  0.009607359798386061 0.0625 0  0.01703708685546806 0.0625 0  0.02653493525245065 0.0625 0  0.03806023374436157 0.0625 0  0.05156362923366253 0.0625 0  0.06698729810778931 0.0625 0  0.08426519384873815 0.0625 0  0.1033233298543955 0.0625 0  0.1240800962605269 0.0625 0  0.1464466094067445 0.0625 0  0.1703270924499866 0.0625 0  0.1956192854956637 0.0625 0  0.2222148834902257 0.0625 0  0.2500000000000299 0.0625 0  0.2788556548905322 0.0625 0  0.308658283817491 0.0625 0  0.339280267348458 0.0625 0  0.3705904774487813 0.0625 0  0.4024548389919803 0.0625 0  0.4347369038900211 0.0625 0  0.467298435384978 0.0625 0  0.5000000000000517 0.0625 0  0.5327015646151253 0.0625 0  0.5652630961100813 0.0625 0  0.5975451610081212 0.0625 0  0.6294095225513188 0.0625 0  0.6607197326516399 0.0625 0  0.6913417161826045 0.0625 0  0.7211443451095605 0.0625 0  0.7500000000000597 0.0625 0  0.7777851165098603 0.0625 0  0.8043807145044185 0.0625 0  0.829672907550091 0.0625 0  0.8535533905933287 0.0625 0  0.8759199037395413 0.0625 0  0.8966766701456674 0.0625 0  0.9157348061513193 0.0625 0  0.9330127018922625 0.0625 0  0.9484363707663832 0.0625 0  0.961939766255678 0.0625 0  0.9734650647475827 0.0625 0  0.9829629131445586 0.0625 0  0.9903926402016341 0.0625 0  0.9957224306869181 0.0625 0  0.9989294616193084 0.0625 0  1 0.0625 0  0 0.08333333333333333 0  0.001070538380698371 0.08333333333333333 0  0.004277569313095364 0.08333333333333333 0  0.009607359798386061 0.08333333333333333 0  0.01703708685546806 0.08333333333333333 0  0.02653493525245065 0.08333333333333333 0  0.03806023374436157 0.08333333333333333 0  0.05156362923366253 0.08333333333333333 0  0.06698729810778931 0.08333333333333333 0  0.08426519384873815 0.08333333333333333 0  0.1033233298543955 0.08333333333333333 0  0.1240800962605269 0.08333333333333333 0  0.1464466094067445 0.08333333333333333 0  0.1703270924499866 0.08333333333333333 0  0.1956192854956637 0.08333333333333333 0  0.2222148834902257 0.08333333333333333 0  0.2500000000000299 0.08333333333333333 0  0.2788556548905322 0.08333333333333333 0  0.308658283817491 0.08333333333333333 0  0.339280267348458 0.08333333333333333 0  0.3705904774487813 0.08333333333333333 0  0.4024548389919803 0.08333333333333333 0  0.4347369038900211 0.08333333333333333 0  0.467298435384978 0.08333333333333333 0  0.5000000000000517 0.08333333333333333 0  0.5327015646151253 0.08333333333333333 0  0.5652630961100813 0.08333333333333333 0  0.5975451610081212 0.08333333333333333 0  0.6294095225513188 0.08333333333333333 0  0.6607197326516399 0.08333333333333333 0  0.6913417161826045 0.08333333333333333 0  0.7211443451095605 0.08333333333333333 0  0.7500000000000597 0.08333333333333333 0  0.7777851165098603 0.08333333333333333 0  0.8043807145044185 0.08333333333333333 0  0.829672907550091 0.08333333333333333 0  0.8535533905933287 0.08333333333333333 0  0.8759199037395413 0.08333333333333333 0  0.8966766701456674 0.08333333333333333 0  0.9157348061513193 0.08333333333333333 0  0.9330127018922625 0.08333333333333333 0  0.9484363707663832 0.08333333333333333 0  0.961939766255678 0.08333333333333333 0  0.9734650647475827 0.08333333333333333 0  0.9829629131445586 0.08333333333333333 0  0.9903926402016341 0.08333333333333333 0  0.9957224306869181 0.08333333333333333 0  0.9989294616193084 0.08333333333333333 0  1 0.08333333333333333 0  0 0.1041666666666667 0  0.001070538380698371 0.1041666666666667 0  0.004277569313095364 0.1041666666666667 0  0.009607359798386061 0.1041666666666667 0  0.01703708685546806 0.1041666666666667 0  0.02653493525245065 0.1041666666666667 0  0.03806023374436157 0.1041666666666667 0  0.05156362923366253 0.1041666666666667 0  0.06698729810778931 0.1041666666666667 0  0.08426519384873815 0.1041666666666667 0  0.1033233298543955 0.1041666666666667 0  0.1240800962605269 0.1041666666666667 0  0.1464466094067445 0.1041666666666667 0  0.1703270924499866 0.1041666666666667 0  0.1956192854956637 0.1041666666666667 0  0.2222148834902257 0.1041666666666667 0  0.2500000000000299 0.1041666666666667 0  0.2788556548905322 0.1041666666666667 0  0.308658283817491 0.1041666666666667 0  0.339280267348458 0.1041666666666667 0  0.3705904774487813 0.1041666666666667 0  0.4024548389919803 0.1041666666666667 0  0.4347369038900211 0.1041666666666667 0  0.467298435384978 0.1041666666666667 0  0.5000000000000517 0.1041666666666667 0  0.5327015646151253 0.1041666666666667 0  0.5652630961100813 0.1041666666666667 0  0.5975451610081212 0.1041666666666667 0  0.62
[...]
<PointData  Scalars="f_1484"> 
<DataArray  type="Float64"  Name="f_1484"  format="ascii">3.7485531801878980e-04  3.7188473066834566e-04  3.6303512072135755e-04  3.4848905897527237e-04  3.2856963250572831e-04  3.0377636915980484e-04  2.7482728190579450e-04  2.4269202840409768e-04  2.0859557810915086e-04  1.7397109808596234e-04  1.4034936231323460e-04  1.0919187654021101e-04  8.1700762805389946e-05  5.8657366993939793e-05  4.0340176093940180e-05  2.6547510889957247e-05  1.6712795611636609e-05  1.0069428606079254e-05  5.8129657285551414e-06  3.2213166857881818e-06  1.7178779170201979e-06  8.8430345753901343e-07  4.4096240277527367e-07  2.1385116038434636e-07  1.0129408146048238e-07  4.7070491719794244e-08  2.1553990488145490e-08  9.7655322397011168e-09  4.3915834662649451e-09  1.9622509268638197e-09  8.6813976019362729e-10  3.7510563676242116e-10  1.5209513145917991e-10  5.0710667695845963e-11  4.5319484904177352e-12  -1.6186813242406768e-11  -2.4822537653438271e-11  -2.7446493830688302e-11  -2.6794339356843144e-11  -2.4240874035095175e-11  -2.0564749384639660e-11  -1.6321845912787409e-11  -1.2031423089528632e-11  -8.1285582689693211e-12  -4.9599561230343503e-12  -2.6442772676063581e-12  -1.1258036880705319e-12  -2.7613594206291425e-13  -2.7079262956135377e-16  3.7485531801735610e-04  3.7189317662572174e-04  3.6306191186062913e-04  3.4853577389479777e-04  3.2863257154165779e-04  3.0384967522281925e-04  2.7490444957008246e-04  2.4276609774059253e-04  2.0865920977355384e-04  1.7401731801738554e-04  1.4037296998116179e-04  1.0919092386944856e-04  8.1677333559149754e-05  5.8617155876446616e-05  4.0290944261901535e-05  2.6497042229822379e-05  1.6667164273680438e-05  1.0032132792581432e-05  5.7850033182781301e-06  3.2018862155479942e-06  1.7052611209940531e-06  8.7659355573780002e-07  4.3650002653308883e-07  2.1139049835313264e-07  9.9994600189826232e-08  4.6410561624323216e-08  2.1231120827962475e-08  9.6138027467595597e-09  4.3240613310910789e-09  1.9350945289349470e-09  8.5983619194804114e-10  3.7540910465379079e-10  1.5622125127412751e-10  5.6441074201504461e-11  1.0879239393177509e-11  -9.6807855262729545e-12  -1.8387708931299742e-11  -2.1222185338973015e-11  -2.0933467256950785e-11  -1.8933999766011871e-11  -1.5990512405870181e-11  -1.2638772383582683e-11  -9.2747955677388526e-12  -6.2378984673040249e-12  -3.7451941977057779e-12  -1.9162705388654153e-12  -7.7159140992863299e-13  -1.7889671829741396e-13  -1.4762689701836591e-15  3.7485531801735269e-04  3.7189521076235512e-04  3.6306996092619028e-04  3.4855306242078039e-04  3.2866045197826567e-04  3.0388697750055924e-04  2.7494764856547525e-04  2.4280996866995073e-04  2.0869767387762326e-04  1.7404447812141674e-04  1.4038433985717877e-04  1.0918458581374055e-04  8.1654551562987125e-05  5.8582079184140204e-05  4.0249432114153501e-05  2.6455068642401316e-05  1.6629433213612132e-05  1.0001357691054584e-05  5.7619329364869803e-06  3.1858404118030535e-06  1.6948265131255447e-06  8.7020576847988801e-07  4.3279608679967613e-07  2.0934482743720845e-07  9.8913438487464981e-08  4.5862088476233302e-08  2.0964156140841867e-08  9.4901156544890701e-09  4.2710062909232919e-09  1.9158739393612810e-09  8.5640394839514624e-10  3.7911050842273970e-10  1.6299698007199730e-10  6.4432937418827445e-11  1.9249227160006310e-11  -1.3192343188999593e-12  -1.0254483466224817e-11  -1.3482601849293144e-11  -1.3778965405224801e-11  -1.2569505450336742e-11  -1.0574486755339849e-11  -8.2612354744231262e-12  -5.9012155302996897e-12  -3.6914499084488413e-12  -1.8635056492086991e-12  -6.3959435210420580e-13  -7.7361808038214064e-14  2.1467440634059630e-14  -9.1174612229293464e-16  3.7485531801796922e-04  3.7189612115275523e-04  3.6307358576746079e-04  3.4856105118246614e-04  3.2867390972978345e-04  3.0390590900153977e-04  2.7497054766935657e-04  2.4283381831960508e-04  2.0871841086386955e-04  1.7405783399054717e-04  1.4038688923036338e-04  1.0917472338046573e-04  8.1633037537185690e-05  5.8551880971988111e-05  4.0214874831882580e-05  2.6420630956020319e-05  1.6598671683496487e-05  9.9763240938021857e-06  5.7431678748048427e-06  3.1727731817139437e-06  1.6863116728797473e-06  8.6497961724894663e-07  4.2975625491189023e-07  2.0765977105728924e-07  9.8018896488536197e-08  4.5405723077176591e-08  2.0740289782703318e-08  9.3851423775497508e-09  4.2249629698382465e-09  1.8982821285747516e-09  8.5217112711316244e-10  3.8101761283160720e-10  1.6759873836936748e-10  7.0137540482662477e-11  2.5314110616668580e-11  4.7463704694407469e-12  -4.3923477844226667e-12  -7.9729706912859512e-12  -8.7973947111628458e-12  -8.2102477747883387e-12  -6.9225287733047730e-12  -5.3116283359361439e-12  -3.5508762927838579e-12  -1.8262356179259623e-12  -4.2459589513492408e-13  3.5777813823232046e-13  4.6151142322852641e-13  1.6774847928721032e-13  -1.0653180987395636e-15  3.7485531801727045e-04  3.7189654634510981e-04  3.6307527734568020e-04  3.4856478724205382e-04  3.2868025164330394e-04  3.0391492855743983e-04  2.7498152140878148e-04  2.4284506867796574e-04  2.0872745565035875e-04  1.7406188643307642e-04  1.4038360254904598e-04  1.0916294398146871e-04  8.1613268667266649e-05  5.8526230350154107e-05  4.0186473558630560e-05  2.6392759120979836e-05  1.6573950637226360e-05  9.9562612703175783e-06  5.7281335973846792e-06  3.1622922477500033e-06  1.6794684210766614e-06  8.6076851559435689e-07  4.2729935268036444e-07  2.0629307746912784e-07  9.7290450204583481e-08  4.5032318828535010e-08  2.0555999685475162e-08  9.2979653877519587e-09  4.1861705850022163e-09  1.8829446819679312e-09  8.4797285764335938e-10  3.8193535317440485e-10  1.7081160937837968e-10  7.4306411428467139e-11  2.9797022086767003e-11  9.2266095877848504e-12  -8.6778972884520936e-14  -3.9809484181426479e-12  -5.2022584929747692e-12  -5.0941120856899313e-12  -4.2990271352279967e-12  -3.1461115245656226e-12  -1.7845871756569324e-12  -4.0583303995040380e-13  6.5760777138471816e-13  1.0818944420102884e-12  8.2477884869458085e-13  2.7130201693607139e-13  -5.0909415534130915e-16  3.7485531801749434e-04  3.7189672190713491e-04  3.6307597385911138e-04  3.4856631799169355e-04  3.2868282838239497e-04  3.0391852988100406e-04  2.7498572033508796e-04  2.4284890323402779e-04  2.0872945935547949e-04  1.7406035428367030e-04  1.4037706175457207e-04  1.0915067769560822e-04  8.1595670746723606e-05  5.8504807955798424e-05  4.0163465134383492e-05  2.6370521302895260e-05  1.6554372063966585e-05  9.9404199146739246e-06  5.7162683568151674e-06  3.1540117788931433e-06  1.6740510314185475e-06  8.5742611237084532e-07  4.2534335738808103e-07  2.0520136271727571e-07  9.6706438645624520e-08  4.4731739249001057e-08  2.0406964003109442e-08  9.2270811717317708e-09  4.1543565245227170e-09  1.8701822259749690e-09  8.4428612519140814e-10  3.8247510975412701e-10  1.7323751087947074e-10  7.7495202324017335e-11  3.3249388986045008e-11  1.2672369497309955e-11  3.2064910859483613e-12  -9.3998664308701191e-13  -2.4647881183656595e-12  -2.7105273106146222e-12  -2.2761901665159113e-12  -1.4591036778290724e-12  -4.0690800812289608e-13  6.8287962518768508e-13  1.4617749102519080e-12  1.6004665855339205e-12  1.0887694246079007e-12  3.4075562677572550e-13  -8.6619571376487194e-16  3.7485531801772647e-04  3.7189676745761333e-04  3.6307615234311663e-04  3.4856669929188874e-04  3.2868343210588381e-04  3.0391926208005610e-04  2.7498628406438596e-04  2.4284872097589592e-04  2.0872767422893513e-04  1.7405597001836064e-04  1.4036922337350638e-04  1.0913900861953335e-04  8.1580519041021888e-05  5.8487265419867628e-05  4.0145120799067075e-05  2.6353043389059317e-05  1.6539095401449414e-05  9.9280970105073090e-06  5.7070429621887811e-06  3.1475664891294788e-06  1.6698254326602414e-06  8.5481187027375917e-07  4.2380864867227893e-07  2.0434184018619070e-07  9.6244927487625763e-08  4.4493277021495386e-08  2.0288232467544850e-08  9.1703096266108501e-09  4.1287213046945517e-09  1.8597877000398014e-09  8.4117744736503218e-10  3.8277416835947707e-10  1.7504129561103163e-10  7.9959168985609920e-11  3.5913142775701137e-11  1.5324616156878836e-11  5.7366141059290841e-12  1.3958450078725425e-12  -3.7784080031825576e-13  -8.7711290117982435e-13  -7.1678250393110380e-13  -1.6505055350473669e-13  6.3641569889933852e-13  1.4809588290383714e-12  2.0219391409909749e-12  1.9434607580251968e-12  1.2505394676949131e-12  3.7928099336100044e-13  -1.2019431128939234e-15  3.7485531801766526e-04  3.7189674944585653e-04  3.6307607786162594e-04  3.4856651995807868e-04  3.2868307461528213e-04  3.0391859899394052e-04  2.7498509069221795e-04  2.4284663566121411e-04  2.0872419804928566e-04  1.7405054347289673e-04  1.4036138966810806e-04  1.0912861946939711e-04  8.1567892212644681e-05  5.8473201222468993e-05  4.0130743003365197e-05  2.6339519646078392e-05  1.6527354387710217e-05  9.9186532027266025e-06  5.6999756362423198e-06  3.1426228995246513e-06  1.6665770514819077e-06  8.5279633387676968e-07  4.2262144497649749e-07  2.0367450233965145e-07  9.5885217790518321e-08  4.4306629874480982e-08  2.0194863655308799e-08  9.1254340828191858e-09  4.1082992399402270e-09  1.8513952121025502e-09  8.3856051442751395e-10  3.8285674490773683e-10  1.7636341130985678e-10  8.1786026408870210e-11  3.7907972749715918e-11  1.7322097530569998e-11  7.6345828705650037e-12  3.1437038432706000e-12  1.1897964397071517e-12  4.8628346757922824e-13  4.3826313102044398e-13  7.9540510273487503e-13  1.3886845728069632e-12  2.0359271355432321e-12  2.3831697966781397e-12  2.1566639242320788e-12  1.3376999322275379e-12  4.0097192927300705e-13  -1.0570550929160580e-15  3.7485531801747802e-04  3.7189670508121767e-04  3.6307589870692445e-04  3.4856610984061650e-04  3.2868232532994257e-04  3.0391737832006176e-04  2.7498322391563041e-04  2.4284388872035977e-04  2.0872028073838219e-04  1.7404515440458019e-04  1.4035431049668197e-04  1.0911983592115033e-04  8.1557688320287668e-05  5.8462167370131620e-05  4.0119671877690385e-05  2.6329221578513135e-05  1.6518467242073852e-05  9.9115228231116595e-06  5.6946404528262750e-06  3.1388857002986693e-06  1.6641153816755722e-06  8.5126416223587594e-07  4.2171574000786290e-07  2.0316340482207919e-07  9.5608565515776563e-08  4.4162446414616631e-08  2.0122367860199212e-08  9.0903737031530510e-09  4.0922175836132446e-09  1.8446752082381475e-09  8.3636758035381788e-10  3.8279258432645859e-10  1.7727696888734235e-10  8.3104670559391549e-11  3.9370399671552584e-11  1.8788596166775836e-11  9.0274874802544432e-12  4.4245688540052515e-12  2.3273042072378029e-12  1.4819318047501785e-12  1.2743593990801165e-12  1.4602453834198623e-12  1.8938382302852137e-12  2.3776924687815655e-12  2.5947464308736399e-12  2.2555221168391404e-12  1.3753290851744086e-12  4.1233810173486497e-13  -7.5728057182645946e-16  3.7485531801694302e-04  3.7189665436927597e-04  3.6307569469484871e-04  3.4856564644740733e-04  3.2868149098014987e-04  3.0391605243007915e-04  2.7498127098037024e-04  2.4284115359883264e-04  2.0871659467844479e-04  1.7404036301264328e-04  1.4034832836912669e-04  1.0911271584343502e-04  8.1549674118760624e-05  5.8453694459625938e-05  4.0111297847253998e-05  2.6321504919934521e-05  1.6511841860785248e-05  9.9062179889001831e-06  5.6906707316200029e-06  3.1361004891856674e-06  1.6622759185654987e-06  8.5011544409499097e-07  4.2103411744104758e-07  2.0277716083302306e-07  9.5398574188717137e-08  4.4052469891526248e-08  2.0066774430440009e-08  9.0633214067670750e-09  4.0796710820972367e-09  1.8393507996043367e-09  8.3453832228020944e-10  3.8261747037409685e-10  1.7787255471036613e-10  8.4020998701359260e-11  4.0409706220516778e-11  1.9818507157053090e-11  1.0008357616685724e-11  5.3180937647793182e-12  3.1266306479329406e-12  2.1571687265334570e-12  1.8378244163044650e-12  1.9087212447215706e-12  2.2176420825744790e-12  2.5837168026065099e-12  2.6987039560365142e-12  2.2881842159261292e-12  1.3775774380601511e-12  4.1432973329316414e-13  -6.0292983310202635e-16  3.7485531801758763e-04  3.7189660722854314e-04  3.6307550518344757e-04  3.4856521713382319e-04  3.2868072216465130e-04  3.0391484247476369e-04  2.7497951628492780e-04  2.4283874978359531e-04  2.0871344349112397e-04  1.7403639068559233e-04  1.4034351755796366e-04  1.0910714423944386e-04  8.1543542306355260e-05  5.8447321609514198e-05  4.0105074635778816e-05  2.6315814115699444e-05  1.6506976284539276e-05  9.9023281391886551e-06  5.6877585796508616e-06  3.1340534547595803e-06  1.6609201358228730e-06  8.4926577889807178e-07  4.2052790656409763e-07  2.0248908748537548e-07  9.5241217218483353e-08  4.3969641632683978e-08  2.0024676866007771e-08  9.0426743342613667e-09  4.0700205588779038e-09  1.8351815275835238e-09  8.3304110507602142e-10  3.8240133548276617e-10  1.7823692654697651e-10  8.4647438108744699e-11  4.1113502311295199e-11  2.0531290411571266e-11  1.0687331060001507e-11  5.9376265258572653e-12  3.6639585992648166e-12  2.6137649957261698e-12  2.2061138566264639e-12  2.1883947489171600e-12  2.4006137516880486e-12  2.6794132544886379e-12  2.7192689637700714e-12  2.2776060664264028e-12  1.3563104480037983e-12  4.0117629411662584e-13  -1.2595757736645295e-15  3.7485531801752827e-04  3.7189656764769922e-04  3.6307534618208113e-04  3.4856485734596537e-04  3.2868007937950073e-04  3.0391383557765411e-04  2.7497806756059676e-04  2.4283678841699439e-04  2.0871091210088210e-04  1.7403325780284424e-04  1.4033979642089891e-04  1.0910291403493026e-04  8.1538961608820543e-05  5.8442622056329990e-05  4.0100528480825188e-05  2.6311682263395569e-05  1.6503455187164343e-05  9.8995159461073672e-06  5.6856515685789666e-06  3.1325692769238188e-06  1.6599341126224761e-06  8.4864552539000942e-07  4.2015682154048424e-07  2.0227692367215526e-07  9.5124761028628092e-08  4.3908023188829951e-08  1.9993165864112816e-08  9.0271199633473993e-09  4.0626661309910810e-09  1.8319403240018582e-09  8.3182124900637412e-10  3.8216030196433051e-10  1.7844789726267532e-10  8.5052158414968633e-11  4.1590636566073369e-11  2.1019027325563945e-11  1.1141782703996319e-11  6.3457850217898091e-12  4.0128900351615086e-12  2.9013279154564034e-12  2.4359145080968716e-12  2.3402653198796492e-12  2.4856739593556370e-12  2.6962194690084563e-12  2.6895240204962152e-12  2.2222907347510488e-12  1.3207630482166510e-12  3.9954625037256747e-13  -9.1945218276849905e-16  3.7485531801692204e-04  3.7189653652572075e-04  3.6307522109677932e-04  3.4856457432979904e-04  3.2867957424821312e-04  3.0391304612705758e-04  2.7497693665805013e-04  2.4283526781539508e-04  2.0870896817687422e-04  1.7403087995967000e-04  1.4033700842990224e-04  1.0909978542725765e-04  8.1535613463651037e-05  5.8439220337868855e-05  4.0097261664372616e-05  2.6308727228319288e-05  1.6500943102454687e-05  9.8975105442124806e-06  5.6841473484019126e-06  3.1315071948644281e-06  1.6592262103369232e-06  8.4819846727926786e-07  4.1988817637229712e-07  2.0212260257634232e-07  9.5039626753767621e-08  4.3862728069884817e-08  1.9969861300169168e-08  9.0155299440423799e-09  4.0571327448315328e-09  1.8294640377189153e-09  8.3085585538910835e-10  3.8191484634344994e-10  1.7854469907863956e-10  8.5307264312788808e-11  4.1890980399886871e-11  2.1323966361499220e-11  1.1421738604085805e-11  6.5887522577800023e-12  4.2217679254631457e-12  3.0682480639289392e-12  2.5484959652406574e-12  2.4134505138225288e-12  2.5040813331263463e-12  2.6590506475427558e-12  2.6180273379339455e-12  2.1470253027163352e-12  1.2697183578258930e-12  3.7236433121771276e-13  -7.7933525105368164e-16  3.7485531801792292e-04  3.7189651314189267e-04  3.6307512711893471e-04  3.4856436158989452e-04  3.2867919451018104e-04  3.0391245322229410e-04  2.7497608932522410e-04  2.4283413322428139e-04  2.0870752647161081e-04  1.7402913003822733e-04  1.4033497478590904e-04  1.0909752416040959e-04  8.1533214225695241e-05  5.8436800463297263e-05  4.0094950533852257e-05  2.6306644151352753e-05  1.6499175214612454e-05  9.8960992009017365e-06  5.6830871913734531e-06  3.1307567289369132e-06  1.6587242678560235e-06  8.4788018554770778e-07  4.1969603679521184e-07  2.0201168191293757e-07  9.4978111491054167e-08  4.3829819090475270e-08  1.9952820410728621e-08  9.0069962514258944e-09  4.0530090173290289e-09  1.8275891940974435e-09  8.3009819241837198e-10  3.8170209924038720e-10  1.7858670228428054e-10  8.5461603863612577e-11  4.2082375516906373e-11  2.1515978699134325e-11  1.1585442617440531e-11  6.7355099040366989e-12  4.3338039119171658e-12  3.1397413853921722e-12  2.6006839497162739e-12  2.4204095076579912e-12  2.4748001491641304e-12  2.5915482943800990e-12  2.5256153823688986e-12  2.0494056584138523e-12  1.2058413031407882e-12  3.5294912902150119e-13  -4.2174124374352666e-16  3.7485531801746604e-04  3.7189649621520237e-04  3.6307505898428445e-04  3.4856420715903672e-04  3.2867891863885281e-04  3.0391202248419315e-04  2.7497547440884641e-04  2.4283331188788157e-04  2.0870648687240799e-04  1.7402787475093379e-04  1.4033352493512423e-04  1.0909592254624442e-04  8.1531525568411724e-05  5.8435106452192932e-05  4.0093339313323157e-05  2.6305195650362647e-05  1.6497947116878511e-05  9.8951183438784956e-06  5.6823491133126453e-06  3.1302327951320683e-06  1.6583725857467523e-06  8.4765622504876959e-07  4.1956020085919779e-07  2.0193286713364756e-07  9.4934164151341528e-08  4.3806159649864141e-08  1.9940494821263512e-08  9.0007710545954230e-09  4.0499771830447182e-09  1.8261845542736743e-09  8.2950632034331429e-10  3.8151292205271005e-10  1.7857204954597154e-10  8.5525341340416649e-11  4.2177685919295418e-11  2.1623037274356471e-11  1.1682079352017224e-11  6.8051878090993829e-12  4.3750747247158891e-12  3.1704093902048463e-12  2.5911482491080631e-12  2.3879652891474195e-12  2.4031671371116849e-12  2.4837170117771513e-12  2.3915570287447269e-12  1.9415510572568124e-12  1.1310669497089671e-12  3.3934436875399145e-13  -1.2205619459569761e-15  3.7485531801724557e-04  3.7189648430431202e-04  3.6307501098876738e-04  3.4856409819419962e-04  3.2867872368042553e-04  3.0391171781143266e-04  2.7497503954449854e-04  2.4283273178532703e-04  2.0870575441288647e-04  1.7402699344141987e-04  1.4033251140863358e-04  1.0909480817713162e-04  8.1530356000834416e-05  5.8433937866508529e-05  4.0092231162752597e-05  2.6304201171251936e-05  1.6497104343800735e-05  9.8944446666775778e-06  5.6818411866748232e-06  3.1298711697982445e-06  1.6581289388631657e-06  8.4750039493335321e-07  4.1946522911028654e-07  2.0187746901055711e-07  9.4903101844376647e-08  4.3789344398842774e-08  1.9931677116658082e-08  8.9962825338181981e-09  4.0477600136033538e-09  1.8251372036808281e-09  8.2904890774056851e-10  3.8134602033282401e-10  1.7854970747906621e-10  8.5553536552925485e-11  4.2229398847227794e-11  2.1663442991110942e-11  1.1725241330525479e-11  6.8203695681080916e-12  4.3813721747877369e-12  3.1485870787520553e-12  2.5611278767085799e-12  2.3244328229988058e-12  2.3153629071716288e-12  2.3533179384874270e-12  2.2531599931906428e-12  1.8070311134650274e-12  1.0566546182524284e-12  3.0941499219750305e-13  -4.7323394846798635e-16  3.7485531801769367e-04  3.7189647613536218e-04  3.6307497800583378e-04  3.4856402311472546e-04  3.2867858902550296e-04  3.0391150701862644e-04  2.7497473846050990e-04  2.4283233029920434e-04  2.0870524821933490e-04  1.7402638579542325e-04  1.4033181468871820e-04  1.0909404473561571e-04  8.1529557407612944e-05  5.8433142266813443e-05  4.0091478315159547e-05  2.6303526312700330e-05  1.6496532438895154e-05  9.8939870154183289e-06  5.6814953901445726e-06  3.1296242190729638e-06  1.6579619021882098e-06  8.4739308358197287e-07  4.1939950348842896e-07  2.0183892351146075e-07  9.4881353965874248e-08  4.3777494886380249e-08  1.9925414218198206e-08  8.9930627128104105e-09  4.0461637060661211e-09  1.8243640191041256e-09  8.2870057122923402e-10  3.8121416379166616e-10  1.7851196374452592e-10  8.5564624647223470e-11  4.2244318846736622e-11  2.1685406295623099e-11  1.1721399204476326e-11  6.8072580588830933e-12  4.3410606131437760e-12  3.0953104914608622e-12  2.4874174248168034e-12  2.2320853168043851e-12  2.1911