<?xml version="1.0"?>
<VTKFile type="UnstructuredGrid"  version="0.1"  >
<UnstructuredGrid>
<Piece  NumberOfPoints="2834" NumberOfCells="4927">
<Points>
<DataArray  type="Float64"  NumberOfComponents="3"  format="ascii">-20 2 0  -20 0 0  -1 0 0  -0.9996988186962042 0.02454122852291233 0  -0.9987954562051724 0.04906767432741797 0  -0.9972904566786902 0.07356456359966773 0  -0.9951847266721968 0.09801714032956083 0  -0.99247953459871 0.1224106751992163 0  -0.989176509964781 0.1467304744553618 0  -0.9852776423889412 0.1709618887603012 0  -0.9807852804032304 0.1950903220161286 0  -0.9757021300385285 0.21910124015687 0  -0.970031253194544 0.2429801799032641 0  -0.9637760657954398 0.2667127574748985 0  -0.9569403357322088 0.2902846772544624 0  -0.9495281805930367 0.3136817403988914 0  -0.9415440651830207 0.3368898533922203 0  -0.9329927988347388 0.3598950365349883 0  -0.9238795325112867 0.3826834323650899 0  -0.9142097557035307 0.4052413140049899 0  -0.9039892931234433 0.427555093430282 0  -0.8932243011955152 0.4496113296546069 0  -0.8819212643483549 0.4713967368259979 0  -0.8700869911087113 0.4928981922297841 0  -0.857728610000272 0.5141027441932218 0  -0.8448535652497071 0.5349976198870972 0  -0.8314696123025453 0.5555702330196022 0  -0.8175848131515836 0.5758081914178454 0  -0.8032075314806448 0.5956993044924335 0  -0.7883464276266062 0.6152315905806269 0  -0.773010453362737 0.6343932841636455 0  -0.7572088465064846 0.6531728429537766 0  -0.7409511253549589 0.6715589548470186 0  -0.7242470829514668 0.6895405447370671 0  -0.7071067811865475 0.7071067811865476 0  -0.6895405447370669 0.7242470829514669 0  -0.6715589548470184 0.740951125354959 0  -0.6531728429537765 0.7572088465064847 0  -0.6343932841636454 0.7730104533627371 0  -0.6152315905806267 0.7883464276266063 0  -0.5956993044924334 0.8032075314806449 0  -0.5758081914178453 0.8175848131515837 0  -0.555570233019602 0.8314696123025455 0  -0.534997619887097 0.8448535652497072 0  -0.5141027441932217 0.8577286100002721 0  -0.492898192229784 0.8700869911087115 0  -0.4713967368259977 0.881921264348355 0  -0.4496113296546067 0.8932243011955152 0  -0.4275550934302819 0.9039892931234434 0  -0.4052413140049897 0.9142097557035307 0  -0.3826834323650897 0.9238795325112867 0  -0.3598950365349882 0.9329927988347388 0  -0.3368898533922199 0.9415440651830208 0  -0.3136817403988914 0.9495281805930367 0  -0.2902846772544622 0.9569403357322089 0  -0.2667127574748983 0.9637760657954398 0  -0.2429801799032639 0.970031253194544 0  -0.2191012401568697 0.9757021300385286 0  -0.1950903220161282 0.9807852804032304 0  -0.1709618887603012 0.9852776423889412 0  -0.1467304744553616 0.989176509964781 0  -0.1224106751992162 0.99247953459871 0  -0.09801714032956065 0.9951847266721969 0  -0.07356456359966733 0.9972904566786902 0  -0.04906767432741801 0.9987954562051724 0  -0.02454122852291214 0.9996988186962042 0  6.123233995736766e-17 1 0  0.02454122852291226 0.9996988186962042 0  0.04906767432741813 0.9987954562051724 0  0.07356456359966745 0.9972904566786902 0  0.09801714032956077 0.9951847266721968 0  0.1224106751992163 0.99247953459871 0  0.1467304744553617 0.989176509964781 0  0.1709618887603014 0.9852776423889412 0  0.1950903220161283 0.9807852804032304 0  0.2191012401568698 0.9757021300385286 0  0.242980179903264 0.970031253194544 0  0.2667127574748984 0.9637760657954398 0  0.2902846772544623 0.9569403357322089 0  0.3136817403988916 0.9495281805930367 0  0.3368898533922201 0.9415440651830208 0  0.3598950365349883 0.9329927988347388 0  0.3826834323650898 0.9238795325112867 0  0.4052413140049899 0.9142097557035307 0  0.4275550934302822 0.9039892931234433 0  0.4496113296546066 0.8932243011955153 0  0.4713967368259978 0.8819212643483549 0  0.4928981922297841 0.8700869911087113 0  0.5141027441932217 0.8577286100002721 0  0.5349976198870973 0.844853565249707 0  0.5555702330196023 0.8314696123025452 0  0.5758081914178453 0.8175848131515837 0  0.5956993044924335 0.8032075314806448 0  0.6152315905806268 0.7883464276266062 0  0.6343932841636455 0.773010453362737 0  0.6531728429537768 0.7572088465064845 0  0.6715589548470183 0.7409511253549591 0  0.6895405447370669 0.7242470829514669 0  0.7071067811865476 0.7071067811865475 0  0.724247082951467 0.6895405447370668 0  0.7409511253549591 0.6715589548470183 0  0.7572088465064846 0.6531728429537768 0  0.773010453362737 0.6343932841636455 0  0.7883464276266063 0.6152315905806268 0  0.8032075314806449 0.5956993044924334 0  0.8175848131515837 0.5758081914178453 0  0.8314696123025452 0.5555702330196022 0  0.8448535652497071 0.5349976198870972 0  0.8577286100002721 0.5141027441932217 0  0.8700869911087115 0.492898192229784 0  0.881921264348355 0.4713967368259976 0  0.8932243011955153 0.4496113296546065 0  0.9039892931234433 0.4275550934302821 0  0.9142097557035307 0.4052413140049899 0  0.9238795325112867 0.3826834323650898 0  0.932992798834739 0.3598950365349881 0  0.9415440651830208 0.3368898533922201 0  0.9495281805930367 0.3136817403988915 0  0.9569403357322088 0.2902846772544623 0  0.9637760657954398 0.2667127574748984 0  0.970031253194544 0.2429801799032639 0  0.9757021300385286 0.2191012401568698 0  0.9807852804032304 0.1950903220161282 0  0.9852776423889412 0.1709618887603012 0  0.989176509964781 0.1467304744553617 0  0.99247953459871 0.1224106751992162 0  0.9951847266721969 0.0980171403295606 0  0.9972904566786902 0.07356456359966743 0  0.9987954562051724 0.04906767432741801 0  0.9996988186962042 0.02454122852291229 0  1 0 0  20 0 0  20 2 0  0 2 0  -10 2 0  10 2 0  -10.5 0 0  -5 2 0  10.5 0 0  5 2 0  -15 2 0  -5.75 0 0  -2.5 2 0  15 2 0  5.75 0 0  2.5 2 0  -15.25 0 0  -3.375 0 0  15.25 0 0  3.375 0 0  -17.625 0 0  -17.5 2 0  17.5 2 0  17.625 0 0  8.125 0 0  7.5 2 0  12.875 0 0  12.5 2 0  -12.5 2 0  -12.875 0 0  -8.125 0 0  -7.5 2 0  -18.75 2 0  -18.8125 0 0  18.75 2 0  18.8125 0 0  16.4375 0 0  16.25 2 0  -16.25 2 0  -16.4375 0 0  13.75 2 0  -14.0625 0 0  -13.75 2 0  -11.6875 0 0  11.6875 0 0  -9.3125 0 0  8.75 2 0  -8.75 2 0  6.9375 0 0  6.25 2 0  -6.9375 0 0  -6.25 2 0  9.3125 0 0  11.25 2 0  -11.25 2 0  3.75 2 0  4.5625 0 0  -4.5625 0 0  -3.75 2 0  -1.25 2 0  1.25 2 0  14.0625 0 0  2.1875 0 0  -2.1875 0 0  -20 1 0  20 1 0  18.21875 0.982421875 0  -18.21875 0.982421875 0  16.875 1.0498046875 0  -17.03125 0.966796875 0  -15.84375 0.953125 0  15.625 1.0625 0  14.375 1.0732421875 0  -14.375 1.0732421875 0  1.830289387965117 1.052284088108649 0  -1.830289387965117 1.052284088108649 0  -3.125 1.08203125 0  -13.28477656888586 1.012129001112436 0  13.125 1.08203125 0  3.125 1.08203125 0  -4.375 1.0888671875 0  11.875 1.0888671875 0  -11.875 1.0888671875 0  4.203765290519877 1.0193030867737 0  -5.625 1.09375 0  5.625 1.09375 0  10.625 1.09375 0  -10.80634835916782 1.025744365312066 0  9.375 1.0966796875 0  -6.875 1.0966796875 0  -9.375 1.0966796875 0  6.684990875912408 1.03136405109489 0  -8.322099415573495 1.036062682633283 0  8.125 1.09765625 0  19.11075969939671 0.8508947319664032 0  -19.11075969939671 0.8508947319664032 0  -7.53125 0 0  8.71875 0 0  7.423362102206937 0.6655467048188293 0  9.90625 0 0  -6.34375 0 0  -10.07209987056368 0.6864155791813131 0  -5.15625 0 0  4.932893941568688 0.70313517104756 0  11.09375 0 0  -3.96875 0 0  12.28125 0 0  -12.56167362378033 0.7158719711052053 0  -15.12789358749343 1.239622257084254 0  19.375 2 0  -19.375 2 0  -7.586458743762512 0.7777256637040587 0  -8.876841588719831 0.5749490497356908 0  -2.78125 0 0  13.46875 0 0  2.486351124110562 0.6882204272146759 0  -2.484375 0.6875496078884429 0  13.765625 0.6685592193186988 0  6.127605163798639 0.5971727330055587 0  0.625 2 0  -0.625 2 0  -1.146535794159178 1.28513409566998 0  1.146535794159178 1.285134095669981 0  14.65625 0 0  14.953125 0.6512707752786624 0  -14.87682753143027 0.5890664696931456 0  12.578125 0.6384885491877257 0  -3.671875 0.6384885491877257 0  -15.625 2 0  -11.36675239212577 0.6158089665857418 0  15.00271470412651 1.324726469417674 0  17.53235848397354 0.7266244978817956 0  11.390625 0.6116981677410314 0  -4.859375 0.6116981677410314 0  15.84375 0 0  16.140625 0.6148897058823529 0  7.497593266890831 1.330710907262048 0  13.76254792112057 1.334335181755445 0  -10.20969602084016 1.352738855957021 0  17.03125 0 0  3.639986821556412 0.6311208834101457 0  -2.422032960990368 1.344610008595471 0  -1.875 2 0  2.42168763602468 1.344854035092462 0  1.875 2 0  -6.046875 0.5879464285714285 0  10.203125 0.5879464285714285 0  4.785027294216357 1.360955117010924 0  -16.43327865604348 1.32661481258014 0  -16.44139997701004 0.663326532427168 0  -12.71719161438206 1.366886164755866 0  9.015625 0.567039754702805 0  -13.85227446991684 0.6433291643838606 0  17.68435132148515 1.367585767263021 0  -8.125 2 0  -7.779164034427432 1.405551895778211 0  6.875 2 0  -16.875 2 0  16.25211206745888 1.264109755085799 0  -3.748868614850469 1.292331074664245 0  12.50113138514953 1.292331074664245 0  -4.999425840599162 1.238293400364507 0  11.25057415940084 1.238293400364507 0  10.00021284174179 1.186027320246887 0  -6.249787158258211 1.186027320246887 0  8.750028772491092 1.133996757348608 0  8.125 2 0  -9.375 2 0  -6.875 2 0  9.375 2 0  10.625 2 0  5.625 2 0  -5.625 2 0  -11.875 2 0  11.875 2 0  -4.375 2 0  3.125 2 0  13.125 2 0  -14.375 2 0  14.375 2 0  15.625 2 0  -18.125 2 0  16.875 2 0  -3.125 2 0  -10.625 2 0  4.375 2 0  -13.125 2 0  18.125 2 0  -17.62042339570457 1.322431301452557 0  -17.64048254773117 0.661277151197267 0  -1.59375 0 0  1.59375 0 0  -19.40625 0 0  19.40625 0 0  20 0.5 0  19.0625 1.466926268772181 0  -18.7305243036722 1.362703047674974 0  -5.451064633443578 0.5209722999527524 0  10.79893536655642 0.5209722999527524 0  9.610417111950763 0.5183010867631196 0  -13.46875 0 0  3.96875 0 0  -11.09375 0 0  6.34375 0 0  2.78125 0 0  -8.71875 0 0  -12.28125 0 0  5.15625 0 0  -9.90625 0 0  7.53125 0 0  -15.84375 0 0  -17.03125 0 0  -18.21875 0 0  18.21875 0 0  -14.65625 0 0  20 1.5 0  -19.48071156660626 1.370757229128913 0  -20 0.5 0  -4.24552725411087 0.5169543671041
[...]
<PointData  Scalars="f_10241355"> 
<DataArray  type="Float64"  Name="f_10241355"  format="ascii">6.8411345957094999e-02  -4.2960350641884561e-02  -9.4884524306816320e-02  -1.9620801745420885e-01  -1.8670018702831778e-01  -2.4880944384991213e-01  -3.7458613420508119e-01  -5.1208039030868180e-01  -7.0993596456197572e-01  -9.0855834051549667e-01  -1.0996690342995663e+00  -1.4374101321346870e+00  -1.8238754496759979e+00  -2.3075688750410790e+00  -2.8701773222648153e+00  -3.6557462786481452e+00  -4.5650495975800052e+00  -5.6404796442223395e+00  -7.5213257920408729e+00  -9.0747870458717337e+00  -1.1084154073165347e+01  -1.4257821890087170e+01  -1.7844739232652866e+01  -2.1134673701806488e+01  -2.5700156604122245e+01  -3.2215320566575734e+01  -3.9463598956971019e+01  -4.6039028166360325e+01  -5.4237666570336252e+01  -6.7197396278764259e+01  -7.8584309966660811e+01  -9.0756528895432950e+01  -1.1836541409029327e+02  -1.3914909657472259e+02  -1.6074242517937023e+02  -1.8489808933110231e+02  -2.1564362778205128e+02  -2.4460983828152098e+02  -3.0595461540288841e+02  -3.4865749306347305e+02  -3.9199960748327788e+02  -4.6987521143710740e+02  -5.0817648514709589e+02  -5.4418436303671092e+02  -6.4893109478171959e+02  -7.4136560352876222e+02  -7.3952657696237179e+02  -9.5721510024811244e+02  -1.0527494626766299e+03  -1.1394657782356362e+03  -1.1801311330784347e+03  -1.2299499758698073e+03  -1.3896095266814928e+03  -1.4633413500259592e+03  -1.5244814581264372e+03  -1.5104563566806580e+03  -1.5723529985934736e+03  -1.5772311557454448e+03  -1.6125052491288193e+03  -1.6895476108252399e+03  -1.5645859671018895e+03  -1.4202448482950686e+03  -1.3061866527204159e+03  -1.1428642542667328e+03  -8.8371484320514423e+02  -5.0805315456008628e+02  -3.1441582285952188e+02  6.6031501258880692e+00  3.2908269576931491e+02  6.0248377296197896e+02  9.2457236312490375e+02  1.2142960521652158e+03  1.4633325576006407e+03  1.7774645511536901e+03  2.0179034198150341e+03  2.1388311025796174e+03  2.2410081937401924e+03  2.4411034074734503e+03  2.4910468662474700e+03  2.5478782221491306e+03  2.5724932114649209e+03  2.6120237662505770e+03  2.5660608565943426e+03  2.6200597782370064e+03  2.6823603166713315e+03  2.7178736672644168e+03  2.6424806070969444e+03  2.5711136938739874e+03  2.4973813418029645e+03  2.4337607254700342e+03  2.4220088574443894e+03  2.3987330748112581e+03  2.3618604025521167e+03  2.2506247205287978e+03  2.1526438149169612e+03  2.1205953240570343e+03  1.9789194148814645e+03  1.8298839981846777e+03  1.7278649134043594e+03  1.6128572874361198e+03  1.4719004203330376e+03  1.3356337286435187e+03  1.2740053399025710e+03  1.1616380594274644e+03  1.0093755482618452e+03  8.7521995138122020e+02  7.5137843156978136e+02  6.4171098206589556e+02  5.0191980403657686e+02  3.7371537869180577e+02  2.8642263539548861e+02  2.0290811436896183e+02  1.3629690213705109e+02  9.5392799368960780e+01  6.2047807366625285e+01  3.8489592551728549e+01  2.8873463481522514e+01  1.7690714650323542e+01  1.2128688780521140e+01  8.6326148943281424e+00  6.0379109246987337e+00  4.1668683943542266e+00  2.7533533847126814e+00  2.0030566738388793e+00  1.3985453701671209e+00  9.6667794154408204e-01  6.6426279410940681e-01  4.4468271296288997e-01  3.2675549878351667e-01  3.4282225583680198e-01  1.4667821446835319e-01  3.0399250097785752e-06  -8.0356504135334186e-07  -9.1431580910104424e+02  6.5826922990185471e-07  -1.2373903282052731e-07  -1.8295938690717733e-06  5.0448815139754227e-04  -1.7641592112883200e-06  -7.0356958951993164e-03  2.3517836387711655e-05  8.6674035574603705e-05  1.3331424547493462e-01  -7.1369002998319061e-07  3.1260176072766582e-03  1.1040499386026246e+00  5.5781547437477314e-05  -1.3030087571540083e-01  -1.2096556871825073e-06  3.9683547379794187e-01  3.2762379160519235e-03  6.1082251804340550e-03  1.0824355209219370e-07  4.9288385246572926e-07  -5.6108329969186127e-06  -4.6562501263195420e-05  3.9011697219080632e-07  -1.2923197874569232e-06  -9.6003198485786067e-07  1.9422412196964969e-06  1.4686047897392779e-05  -9.2697595532086868e-06  2.6896811328047093e-02  8.0295752632467809e-03  -2.2094115479121959e-08  2.0842575140414601e-06  -1.0854390665214687e-06  5.6513709802319192e-08  6.4733404694591044e-04  6.2784558584540932e-04  1.1655865819810319e-07  1.5743192706557800e-06  3.8114321538895308e-07  -7.4196287787084641e-10  -2.6724188887143329e-06  -1.3645444957944466e-06  -4.4690863918243005e-07  -1.5860607731254854e-06  1.3881250799086119e-04  -7.5688732529924840e-04  9.6908619384118350e-05  -5.7694193969631549e-05  -1.0065348964190763e-06  9.1400178855737593e-07  4.6242318853807266e-07  -1.2058604753407238e-03  4.2443541432597383e-02  -8.4652601735219768e-03  1.9657311263955264e-02  1.7389186113836419e+00  6.0013785772599626e+01  4.3733129057796615e-06  2.7876901788829622e+00  -1.4490606673209414e+00  -3.1644692523056031e-02  1.2261136829009431e-06  2.7200319539793856e-07  7.3788123782031947e-03  1.5024647185655227e-06  1.9150914886376504e-03  1.8035733032261721e-04  2.7445453100247079e-06  5.1226636241220171e-07  3.3098064255163800e-06  1.1691345400134701e+01  -4.2048756742917259e-01  4.5947946434927812e-02  7.0178180009619419e-07  -1.6424184203493817e-06  6.4826940818650994e-02  4.7543213542324703e-03  2.7535346481215919e-06  2.2576149224321349e-06  6.6045083759189863e-03  3.4205205773376964e-05  -5.8243002322956822e-04  4.2683805118245262e-06  2.9590218566504040e-06  3.4171196642038665e-06  -1.6761034282237244e-05  1.5743686997872472e-06  6.5340339538506775e-05  -1.7177432636478244e-06  1.2662081797946773e-05  4.4230322546424276e-09  -4.5531525519122056e-03  4.1080993322321335e-05  -3.0061488322314581e-06  1.9014235765082365e-05  1.1302560628254610e-06  1.7832462550416211e-04  -1.0043056822485759e-06  -1.2967035438265725e-03  8.2072016584669658e-03  -1.3450537878114500e-06  -3.5026982826551645e-02  -5.7466244736347467e-07  1.0248808753042612e-07  2.5864665097728717e-05  1.0233001448479722e-06  6.2004669205686896e-02  3.9966601640240008e-06  -1.3701596170107708e-06  -4.4483922616451743e-01  2.5767243320617775e-06  1.5782837841410435e+00  -2.5980714177412728e-01  1.3875313873273423e-06  7.6777322264285068e-04  -5.0568699183157077e+02  -6.9090881710877170e+00  -5.7232454488858711e+00  -3.6876161303035438e+01  2.9725809693425344e-07  7.6965376042064185e-07  1.7114461186931603e-05  3.9180162651263982e-07  -1.4258562777666312e-02  1.4873861608564350e-04  1.4324625420185864e-06  2.8658043720756891e-06  -1.6181155776982240e-07  4.0302372159567832e-07  -5.5322744596598679e-04  -8.0286419146964566e-07  9.6618940764318469e-07  2.2187304110099410e-05  4.0472325365345980e-07  3.8416661015403127e-06  -6.6191442481992692e-07  1.5807859144651012e-01  1.3909456346295840e-01  4.9448636064323254e-01  8.4643084751070952e-01  9.0033065162843062e+00  8.6570405518191122e-05  -1.3336467804724247e-06  -8.9026450098437064e-03  6.8911291485540538e-04  6.6987392095619735e-04  2.7790457491137508e-06  1.7898646988841235e-06  7.6629605391717866e-07  6.2206982235376538e-07  -3.9828800977883892e-06  -7.1832373262468637e-06  -1.8262833768710322e-04  2.2951348769407257e-03  2.5004727553588696e-06  2.5627426197111301e-02  2.7238199869273790e-07  8.3263399438375529e-04  2.1227374360238422e-06  4.6182689630662639e-06  -5.5638067439821216e-05  5.5558633638490461e-06  -3.4344195863764098e-06  -3.5585364434118254e-06  -2.5696143711595554e-05  3.1238639066412856e-07  1.0815188058959698e-07  -2.7227276518910748e-03  -9.7746409121210606e-05  -2.3745905523337904e-07  1.6808479948906012e-06  3.7300061888614630e-03  1.7453123508148097e-01  1.3386902743772141e-06  5.4478717787614401e-06  -8.7909045021867877e-08  -6.5062121976334033e-07  1.3827094448188413e-02  -6.3466225689852381e-08  7.0829447807143425e-02  3.3288983842197753e-07  -1.3611279265452466e-02  3.9273857718614643e-07  -5.1646059304006131e-07  5.5367333689335663e-03  4.0185991074179455e-03  -4.8922994924919960e+00  6.8673814130086326e+00  6.5951428593850727e-03  2.5993140561346139e-06  6.1029980930937390e-06  3.0984758549001804e-06  1.6375283954637308e-02  -2.9717723859711263e-05  -1.1185454617292968e-07  7.1248861625422048e-07  1.3070684539470703e-06  1.2215236128305779e-01  -6.7416925570813892e-07  7.1803624057021622e-04  1.0417429087353554e+00  3.9935821697255729e-06  1.2745938444483396e-06  1.1767236360534169e-02  -4.8416903607152852e-07  1.1343412146534801e-05  1.9083716469611738e-04  1.5910177592634853e-03  4.8861167644903419e-03  1.1092445185983621e-06  1.2049206939951440e-05  4.4349236463898716e-06  4.6779618689420072e-04  -5.6788971574599702e-02  -8.9381438175891448e-03  -7.0825083509351508e-08  1.7956816381061653e-06  4.1854653248978718e-03  2.6495695949125404e-06  -3.6849826790305715e-07  5.1894279857902955e-07  2.6557317402994488e-06  -1.3219167316314989e-01  5.5765191133328906e-01  -3.4902579645346989e+00  3.2121384067385613e+01  -6.5745055553314303e-07  1.0448483992563678e-04  4.3084979567903632e-06  1.4992369110792814e-06  -5.6536728365126188e-02  -1.6797373420816871e+03  -2.7753967070051579e+02  3.6747486015717317e-06  2.8121408255837314e-06  -4.6630708591661688e-03  3.6681233327440000e-03  -1.0119001916860026e-03  -1.9182532273293414e-05  6.3401978306767680e-05  3.4631508753667872e-06  -2.2287140292730732e-06  4.2579176430780830e-06  -1.5913119631403572e-06  4.0975930887614903e-07  2.0767837769054657e-06  6.2484559268405612e-02  -3.7572730595205085e-02  -1.6256618394018597e-06  3.9321200303108010e-06  9.8773029133372802e-06  2.3657135301029624e-04  5.8082389386819955e-06  3.7182554946641824e-06  2.2419093092824552e-04  -2.0915354254700933e-04  2.4342216344970125e-06  1.5728357301544118e-06  1.1165867240327145e-06  -8.8594025872878807e-06  2.7220567676028524e-03  3.7835746880102980e-06  2.5825059485556081e-06  -5.3858020245492618e-05  -9.5255058519020733e-05  3.9211442853666611e-06  3.8642482008226254e-06  1.3349815145845630e-02  4.2374287201732491e-01  1.2061805181231225e+01  5.1345537546048448e+00  3.4565402774224927e-05  -1.0868964922827349e+00  1.0220391645843379e-02  -3.5346152352053977e-07  2.7987432045997408e-06  3.2660338160432525e-06  4.5012146968777848e-05  1.2424553145254150e-06  1.7624845217449245e-03  1.8799503444523652e-06  4.3876524180023178e-06  -5.6027991268079607e-05  4.4669355729183369e-03  4.1933545667256778e-06  4.4126094320239526e-06  1.4110441815905954e-03  1.4935421594037837e-01  9.7445177129487470e-02  3.4260933558250667e-06  1.1117646329479066e-06  -2.8977688050783705e-02  5.3478143975731337e-07  1.3172537292075398e-06  7.0631635931914117e-03  3.4936028758711220e-02  2.3069948413786423e-06  -7.8344695862082349e-03  7.5404457398217649e-06  3.1249048038881785e-06  9.1738847760980540e-07  3.7416145721555705e-06  1.1071542943393389e-06  2.6577555498295889e-04  2.1625478262767131e-06  7.7445976808656505e-05  3.4037785777275703e-02  3.4671898658272709e-05  2.0105141431089044e-01  4.6486807403386656e+00  -3.2425807752999625e-01  -2.2854111791931967e+02  -5.2187926614415367e-07  -1.0254282199455714e-03  1.4132754621089213e-06  -5.8699063024534818e-03  1.9920931970517234e-06  6.4200577731063309e-05  1.7691971017981404e-06  2.3647254630664548e-03  -2.7513890143985115e-02  -6.6126387352639895e+01  -2.4805941337555115e+02  4.4098431455692300e-07  9.7623568751175548e-08  1.3834490198395822e-04  2.4885705818531063e-06  9.2581350646073184e-03  1.6977508888773303e-06  5.0885247751809243e-03  2.0976679110956593e-06  4.4686054888044919e-06  5.4263120301939368e-05  6.7016940040826095e-03  -1.7475592283181338e-02  6.0818371339490639e-06  -1.5571916287789130e-05  2.7501661861335626e-06  1.9713941046056172e-06  -1.4244519523229282e-06  -1.7494671900797301e-06  1.4774477335147203e-03  1.5026648586041966e-05  6.8599831839338668e-02  2.3043663924337270e-03  2.1447095364318169e-02  2.9170228832874043e-02  2.2337585735851897e-06  -2.7786098040603493e+00  1.4576704720282842e-06  3.2019703461352074e-07  1.3155272303626236e-02  -2.3138163380463424e-06  2.0589927695815270e-05  1.3982294575171943e-05  2.5968498714634016e-06  1.0884599602121775e-05  2.5635479223129137e-05  4.7553401399500720e-06  1.4028208503244767e+02  7.1955774427120914e-07  1.6947172564478798e-07  7.9277047978403599e-06  -8.0151265172979966e-08  -7.8808468493786902e-07  -1.0085586801490798e-02  -7.8553475142327445e-06  -6.9900522663268756e-07  5.9099835215373285e-02  4.1668788706559606e-01  2.5086418744271906e+00  1.2563603640985950e+00  4.1925629610876527e+00  3.0334324992810093e-07  -2.8881481084807598e-01  -6.4698179835066427e-01  -1.5198615605218083e-01  -9.9190380104390830e+00  -7.6303180946841865e-05  1.0056506994077103e-04  9.4891892537458389e-03  -7.0994978508765715e-06  4.3799299892684743e-06  6.5263705814178413e-05  2.1409026505869275e+00  2.8824056772565326e-01  -4.5665369094960074e-07  -2.7880859717155809e-07  -5.6703704614705112e-07  3.5806259584337825e-06  3.4647142285909783e-06  1.5090963956739796e-03  1.8384971649659530e+01  -5.3058416539560515e-07  8.7689561597216311e-07  -1.2843162865763768e-06  -2.9577645380279286e-06  8.0948963785356128e-08  1.9106114078773002e-02  3.2093037651878600e-06  -5.1521656350189977e-03  1.0152586267620752e-03  5.3155792803727126e-04  1.6958900088841399e-06  -4.2490295044844185e-07  -1.6569796904074128e-08  -5.2712929542017659e-07  1.4607348030552209e-01  6.4618575831941374e-02  1.4083960082358092e-02  3.5207758708259212e-06  2.3130437944946305e-04  2.1541247887062074e-03  7.1869796377421692e-04  8.9302245978289240e-03  -2.8574791046623291e-02  -5.1201622546698309e-09  1.8536421526556903e-06  -7.4515492334787006e-02  -1.3514578262012914e-02  -6.3828510306011737e-07  -4.8112204830560756e-07  2.0257391325073914e-06  5.4040519503821723e-04  3.4839191561231110e-04  4.3905421400855888e-05  2.2478650131754394e-03  3.6265114763150688e-03  1.8612037758222639e-03  1.8574022475522701e-06  3.0057164674567714e-06  -9.9446268593270633e-07  -2.4760980899682816e+00  -2.7418554980281091e+00  2.7670699856869755e-06  4.3893093060560044e-03  3.7847730013034395e-03  7.8420700207266509e-03  4.9626493437505467e-03  3.2856161933579418e-06  6.2670485724443392e-03  1.4312764853196998e-02  -6.4634183519110896e-05  2.2366907262860630e-01  3.1005572403012377e-01  4.9281483664148812e-07  -6.8283562654433599e-07  2.3016984941844141e-06  -5.3338092359143143e-07  -1.6060811630149071e-06  -5.3823945437663172e-06  6.3549514876810467e-06  -1.8423838376950646e-02  4.3318309649987051e-06  1.4643079950296764e-06  -6.2531663915116787e-04  -6.0580296596567192e-07  -1.1239893041970812e-06  -5.2216445937432404e-03  -3.6619397285407554e-03  -8.2811318656090410e-04  -6.6960144410103797e-07  3.3765309273784240e-04  4.8863753562925567e-04  3.1832982503848463e-06  8.0700772581283105e-04  1.4209323045981115e-06  2.8523785869728291e-08  3.9344466579785172e-06  4.6167339446847894e-06  -8.7131161617602475e-03  3.4049636379952732e-07  3.5799275975413550e-03  1.0762866972019709e-03  3.6991707777640965e-03  5.8053381843546662e-03  -2.2893519077809201e-06  -5.3024413555221226e-07  2.9291910516143239e-06  -3.8890751814204314e-07  3.4290417715475650e-06  -2.1321864274884408e-06  -1.5367614305407131e-06  2.7546491263007568e-06  4.9903540478171655e-07  3.8936537179560214e-04  2.9461517009687535e-02  -4.3242530946201998e-06  3.8771026542449418e-06  -1.2917286579315104e-06  1.5476487300582547e-06  3.6158714770933087e+00  -1.0672581343222152e-06  1.0473171331470904e-06  1.3256247081219875e-06  3.9369894322844434e-06  -1.3860111810453775e-07  9.7166916574322991e-07  4.1150815335391141e-06  5.7878795210019826e-05  1.6605573983465861e-05  -1.8724712466667644e-06  -7.6693695879206733e-07  8.6213543397336306e-05  1.6922628251555725e-04  -1.2896372660248744e-06  1.3203879826385504e-04  -7.3407956557557483e-06  -3.3400697140964763e-06  -5.7336469914293063e-06  -8.3038139336127382e-07  -2.1172890023422956e-07  1.0055489936947876e-06  3.4013175126177258e-06  6.7304382029908949e-01  3.1924408644531248e-07  -7.2403252566602377e-02  1.7494094749466443e-07  -1.4181437576150627e+03  -5.9903781879124602e-05  2.4652249578034743e-05  1.1288427771674523e-07  5.8905004497412407e-02  1.5041286288174806e-06  3.9388420279845992e-07  -5.0358538926418595e+00  7.6225937380595052e+00  1.6793117670744959e-06  2.2592498741000492e-06  1.3196576202778942e-04  7.0301071423128532e-03  2.1845927437035683e-06  1.3876649493680562e-06  4.1620736316943638e-06  -7.8473613210630575e-08  4.8424989778623107e+01  -5.0558051892259454e-02  1.1762919302476294e-02  -1.4225861301848834e+03  -1.0723623940959953e+03  -7.3319842083409900e-02  5.8911225192375956e-04  4.4051906180189908e+00  8.3798568621017662e+00  -3.3079383688541530e-07  2.3089169443372721e-06  -2.3253516302577334e-06  -3.3668189099703703e+01  -9.0193972801179029e+02  9.1577213173941868e-06  -1.6081250517206995e-04  4.9325652835594097e-06  5.1953127677420444e-06  3.8366778043249045e-06  -1.1402889090451453e-02  3.5763563202545191e-06  -9.8437649565976102e+00  2.5669129425515269e-01  1.1113754742389536e-03  8.7921835945991939e-07  -4.7360666470554112e-02  3.8822965597051124e-07  1.0491675931821240e-05  5.6099920857959033e-07  2.8528821571720942e-05  2.2846115382522865e-06  1.0054305702293529e-06  2.0810598682209384e-05  -1.0205123293162189e-06  4.4138153654629820e-06  3.2209916519757447e-06  3.4625639737752956e-07  2.0714922133187492e-02  1.1997845438967518e-03  5.8966013577644162e+01  3.6058245235257189e+00  3.4068058284291505e-02  6.4955341901620626e-05  -1.6970134086174253e-07  -4.0779814246626826e-07  2.4906934982190387e-02  8.5732321357516773e-03  -2.6108468644570075e-07  9.8748803651385858e-02  4.6780772612710952e-01  -6.4386700465668701e-07  1.4737356758072970e-08  1.1825511380563008e-03  2.5527726645580222e-07  -3.2154222283648344e-07  2.3448257125355106e+01  8.4037400249112970e-01  1.2392908390226249e-07  -9.5145465664367063e-05  -6.9362047207974106e-05  8.9367253220397581e-07  -3.2240889545579309e-07  4.4249665750042288e-07  -2.9983491470913985e-06  3.0740111343624342e-04  9.5692966496590975e-06  1.8187863376374634e-06  -2.9027944769950637e-06  1.5069002367144788e-06  -2.7158518294168959e-05  -1.7689099171887064e-03  -1.3043836203124820e-03  -4.3381559344199492e-03  -2.6219256599065801e-07  3.3367210612504852e-06  -4.2792598052137967e-07  4.5062677928140699e-02  2.5387116233579680e-07  -1.1891386663893364e-06  1.0819902241340918e-06  -1.2488441435522205e+02  1.1982288445165529e-06  3.6660426063909335e+00  2.3820798705113230e-01  -4.1914314475825716e-04  4.1962287420736149e-07  -1.2973891416896489e-05  6.9664534474974156e-07  1.3917615270564346e-01  -2.9673549886632444e-01  2.4273075526061720e-02  -2.4790707650059407e-01  9.3339718957281760e-04  1.0883686829469591e-07  6.3733510320127505e-06  4.5825556346528174e-06  -2.6428371530530199e-05  -7.2820489472103206e-02  3.3660231290494544e-03  1.9709695484207059e-06  1.3338703572699675e-04  -4.1318932577077658e-07  1.5759238168970240e-06  1.6608026095364171e+01  5.7546565270431619e-06  2.9537011698558879e-06  -4.4770640969687046e+00  -5.4787921969080191e+00  1.8911028097160348e-06  2.1992293336466051e+02  -1.8032992806659304e-06  -1.8413681227914088e-02  6.8183611945446323e-05  -6.7108404815147836e-07  5.9295861785197297e-06  3.3915455494515669e-03  1.0972094162361624e-06  1.2586402630156781e+00  1.0632423722778662e-06  1.5679230139128580e-05  -1.4573734484522407e-06  -3.4955448017672767e-04  -7.0573864922366036e-01  5.4157184633236126e-05  -4.7447671597280293e-07  6.7142441991921943e-06  1.3463370491196128e-08  -3.2735335227038962e-06  5.9626277598614815e-06  6.2086484460998363e-06  5.6632236291608712e-03  1.3460397191382621e-06  2.0731044383538327e-01  -3.6851724967798158e-07  1.7142848562009116e+00  8.4636291405914458e-06  2.4247936197215512e-03  4.8331865268271094e-03  1.2314571465976156e-06  4.0417477842963841e-08  6.5583924586862827e-05  3.1774036948592770e-04  -1.3951346094493568e-06  6.7075874855187054e-02  1.8698819133307035e-06  2.5312600225307232e-06  1.0686299235609403e-04  -1.4088936830298838e-06