<?xml version="1.0"?>
<VTKFile type="UnstructuredGrid"  version="0.1"  >
<UnstructuredGrid>
<Piece  NumberOfPoints="2954" NumberOfCells="5142">
<Points>
<DataArray  type="Float64"  NumberOfComponents="3"  format="ascii">-20 2.5 0  -20 0 0  -1 0 0  -0.9996988186962042 0.02454122852291233 0  -0.9987954562051724 0.04906767432741797 0  -0.9972904566786902 0.07356456359966773 0  -0.9951847266721968 0.09801714032956083 0  -0.99247953459871 0.1224106751992163 0  -0.989176509964781 0.1467304744553618 0  -0.9852776423889412 0.1709618887603012 0  -0.9807852804032304 0.1950903220161286 0  -0.9757021300385285 0.21910124015687 0  -0.970031253194544 0.2429801799032641 0  -0.9637760657954398 0.2667127574748985 0  -0.9569403357322088 0.2902846772544624 0  -0.9495281805930367 0.3136817403988914 0  -0.9415440651830207 0.3368898533922203 0  -0.9329927988347388 0.3598950365349883 0  -0.9238795325112867 0.3826834323650899 0  -0.9142097557035307 0.4052413140049899 0  -0.9039892931234433 0.427555093430282 0  -0.8932243011955152 0.4496113296546069 0  -0.8819212643483549 0.4713967368259979 0  -0.8700869911087113 0.4928981922297841 0  -0.857728610000272 0.5141027441932218 0  -0.8448535652497071 0.5349976198870972 0  -0.8314696123025453 0.5555702330196022 0  -0.8175848131515836 0.5758081914178454 0  -0.8032075314806448 0.5956993044924335 0  -0.7883464276266062 0.6152315905806269 0  -0.773010453362737 0.6343932841636455 0  -0.7572088465064846 0.6531728429537766 0  -0.7409511253549589 0.6715589548470186 0  -0.7242470829514668 0.6895405447370671 0  -0.7071067811865475 0.7071067811865476 0  -0.6895405447370669 0.7242470829514669 0  -0.6715589548470184 0.740951125354959 0  -0.6531728429537765 0.7572088465064847 0  -0.6343932841636454 0.7730104533627371 0  -0.6152315905806267 0.7883464276266063 0  -0.5956993044924334 0.8032075314806449 0  -0.5758081914178453 0.8175848131515837 0  -0.555570233019602 0.8314696123025455 0  -0.534997619887097 0.8448535652497072 0  -0.5141027441932217 0.8577286100002721 0  -0.492898192229784 0.8700869911087115 0  -0.4713967368259977 0.881921264348355 0  -0.4496113296546067 0.8932243011955152 0  -0.4275550934302819 0.9039892931234434 0  -0.4052413140049897 0.9142097557035307 0  -0.3826834323650897 0.9238795325112867 0  -0.3598950365349882 0.9329927988347388 0  -0.3368898533922199 0.9415440651830208 0  -0.3136817403988914 0.9495281805930367 0  -0.2902846772544622 0.9569403357322089 0  -0.2667127574748983 0.9637760657954398 0  -0.2429801799032639 0.970031253194544 0  -0.2191012401568697 0.9757021300385286 0  -0.1950903220161282 0.9807852804032304 0  -0.1709618887603012 0.9852776423889412 0  -0.1467304744553616 0.989176509964781 0  -0.1224106751992162 0.99247953459871 0  -0.09801714032956065 0.9951847266721969 0  -0.07356456359966733 0.9972904566786902 0  -0.04906767432741801 0.9987954562051724 0  -0.02454122852291214 0.9996988186962042 0  6.123233995736766e-17 1 0  0.02454122852291226 0.9996988186962042 0  0.04906767432741813 0.9987954562051724 0  0.07356456359966745 0.9972904566786902 0  0.09801714032956077 0.9951847266721968 0  0.1224106751992163 0.99247953459871 0  0.1467304744553617 0.989176509964781 0  0.1709618887603014 0.9852776423889412 0  0.1950903220161283 0.9807852804032304 0  0.2191012401568698 0.9757021300385286 0  0.242980179903264 0.970031253194544 0  0.2667127574748984 0.9637760657954398 0  0.2902846772544623 0.9569403357322089 0  0.3136817403988916 0.9495281805930367 0  0.3368898533922201 0.9415440651830208 0  0.3598950365349883 0.9329927988347388 0  0.3826834323650898 0.9238795325112867 0  0.4052413140049899 0.9142097557035307 0  0.4275550934302822 0.9039892931234433 0  0.4496113296546066 0.8932243011955153 0  0.4713967368259978 0.8819212643483549 0  0.4928981922297841 0.8700869911087113 0  0.5141027441932217 0.8577286100002721 0  0.5349976198870973 0.844853565249707 0  0.5555702330196023 0.8314696123025452 0  0.5758081914178453 0.8175848131515837 0  0.5956993044924335 0.8032075314806448 0  0.6152315905806268 0.7883464276266062 0  0.6343932841636455 0.773010453362737 0  0.6531728429537768 0.7572088465064845 0  0.6715589548470183 0.7409511253549591 0  0.6895405447370669 0.7242470829514669 0  0.7071067811865476 0.7071067811865475 0  0.724247082951467 0.6895405447370668 0  0.7409511253549591 0.6715589548470183 0  0.7572088465064846 0.6531728429537768 0  0.773010453362737 0.6343932841636455 0  0.7883464276266063 0.6152315905806268 0  0.8032075314806449 0.5956993044924334 0  0.8175848131515837 0.5758081914178453 0  0.8314696123025452 0.5555702330196022 0  0.8448535652497071 0.5349976198870972 0  0.8577286100002721 0.5141027441932217 0  0.8700869911087115 0.492898192229784 0  0.881921264348355 0.4713967368259976 0  0.8932243011955153 0.4496113296546065 0  0.9039892931234433 0.4275550934302821 0  0.9142097557035307 0.4052413140049899 0  0.9238795325112867 0.3826834323650898 0  0.932992798834739 0.3598950365349881 0  0.9415440651830208 0.3368898533922201 0  0.9495281805930367 0.3136817403988915 0  0.9569403357322088 0.2902846772544623 0  0.9637760657954398 0.2667127574748984 0  0.970031253194544 0.2429801799032639 0  0.9757021300385286 0.2191012401568698 0  0.9807852804032304 0.1950903220161282 0  0.9852776423889412 0.1709618887603012 0  0.989176509964781 0.1467304744553617 0  0.99247953459871 0.1224106751992162 0  0.9951847266721969 0.0980171403295606 0  0.9972904566786902 0.07356456359966743 0  0.9987954562051724 0.04906767432741801 0  0.9996988186962042 0.02454122852291229 0  1 0 0  20 0 0  20 2.5 0  0 2.5 0  -10 2.5 0  10 2.5 0  -10.5 0 0  -5 2.5 0  10.5 0 0  5 2.5 0  -5.75 0 0  5.75 0 0  -15.25 0 0  -15 2.5 0  15.25 0 0  15 2.5 0  -17.625 0 0  -17.5 2.5 0  17.5 2.5 0  17.625 0 0  12.5 2.5 0  12.875 0 0  -12.5 2.5 0  -12.875 0 0  -2.5 2.5 0  2.5 2.5 0  -8.125 0 0  -7.5 2.5 0  8.125 0 0  7.5 2.5 0  -3.375 0 0  3.375 0 0  -18.75 2.5 0  20 1.25 0  16.4375 1.19375 0  -16.25 2.5 0  13.75 2.5 0  -14.0625 0 0  -11.6875 0 0  11.6875 0 0  8.75 2.5 0  -8.75 2.5 0  6.9375 0 0  6.25 2.5 0  -6.25 2.5 0  -9.3125 0 0  -6.9375 0 0  9.3125 0 0  11.25 2.5 0  -11.25 2.5 0  3.75 2.5 0  4.5625 0 0  -4.5625 0 0  -3.75 2.5 0  -13.75 2.5 0  14.0625 0 0  -16.4375 0 0  -20 1.25 0  -18.8125 0 0  18.75 2.5 0  -18.21875 1.2359375 0  18.125 1.278125 0  -15.84375 1.2125 0  -14.375 1.30859375 0  14.65625 1.203125 0  2.1875 0 0  -2.1875 0 0  13.125 1.315625 0  3.125 1.315625 0  -3.125 1.315625 0  -12.28125 1.1890625 0  -5.15625 1.184375 0  11.09375 1.184375 0  5.625 1.325 0  -10.97262068800044 1.220713793599868 0  9.375 1.32734375 0  -6.875 1.32734375 0  -9.67626828410207 1.24449497187193 0  8.061334925608099 1.312208731402025 0  -8.188665074391901 1.312208731402025 0  -1.25 2.5 0  1.25 2.5 0  4.37465139623265 1.41327350462657 0  16.25 2.5 0  6.84375467392576 1.430449641528851 0  -1.846573640185365 1.334702047669377 0  1.846573640185365 1.334702047669377 0  -17.02955351149946 1.396129584721571 0  16.4375 0 0  18.8125 0 0  -13.31314667860176 1.511193493282891 0  -4.122005747945582 0.961844908681634 0  12.12799425205442 0.961844908681634 0  15.54930641305724 1.660405980876393 0  19.0578783583929 0.9559530595267438 0  8.71875 0.6864560603786576 0  -7.53125 0.6864560603786576 0  -0.6257799091428727 1.819008129832856 0  0.6257799091428734 1.819008129832855 0  6.291331569065717 0.7194652423646902 0  -19.11204717950418 0.9044926794710327 0  -4.488713231834613 1.772186102355655 0  11.76128676816539 1.772186102355655 0  -19.28185607205105 1.781856072051052 0  19.30868080343342 1.808680803433421 0  9.90625 0.6371857066656857 0  -6.34375 0.6371857066656857 0  3.796921710049233 0.7617406159238448 0  7.392020585015773 0.7480839107774819 0  -8.910372062800235 0.7929553447587234 0  10.2506781820361 1.451853913138859 0  -5.999321817963904 1.451853913138859 0  4.957643119381741 0.7716423099297361 0  17.29984375 0.8640625 0  15.41193625859067 0.8279888354083842 0  -13.72251704931534 0.7728002662082776 0  16.875 2.5 0  17.12178336313261 1.690954734835967 0  -11.64001625260176 1.74572103154608 0  2.477726735235857 0.7850262278604345 0  13.46875 0 0  13.765625 0.7802887470308788 0  -2.78125 0 0  -2.477726735235857 0.7850262278604346 0  -10.33383379274331 1.744431431923121 0  13.91957519050334 1.653419259628842 0  -15.08147780274903 0.8341506893754731 0  -15.14066649024666 1.671962869821843 0  -8.950686484882164 1.678622661163363 0  -17.55392917606836 0.794731598412167 0  -16.80247533599675 0.6688259240674158 0  -12.94289066923278 0.7766744225472476 0  -9.90625 0 0  -10.31601468672093 0.7730817089126454 0  -18.21875 0 0  -12.28125 0 0  -17.68515668569534 1.768907656575843 0  18.21875 0 0  10.85059123027421 1.880344717307101 0  -5.399408769725794 1.880344717307101 0  -3.738137326223278 1.749164834446819 0  -3.125 2.5 0  12.46235897590077 1.601301060091387 0  -11.09375 0 0  -11.61661448001209 0.7781698802173554 0  -15.625 2.5 0  -1.764022608759088 0.6027229563180789 0  1.59375 0 0  -8.125 2.5 0  8.125 2.5 0  8.713468311289519 1.727645658498745 0  9.375 2.5 0  -7.536531688710481 1.727645658498745 0  -6.875 2.5 0  14.375 2.5 0  17.78381794101733 1.874391370085592 0  18.59891476281433 1.80649740393129 0  -18.58835555265984 1.824268641341969 0  1.806126122135773 0.6510673837470153 0  -16.875 2.5 0  -16.36681393636619 1.755298393865037 0  -16.13072438662071 0.6014017614895231 0  -13.92460230791385 1.83195710210235 0  -14.40198779087891 0.6105385965811564 0  20 0.625 0  19.40625 0 0  14.6875 1.888836596385542 0  14.65625 0 0  12.78248197181444 0.6991460920542635 0  -3.467518028185561 0.6991460920542635 0  13.125 2.5 0  2.491957142932539 1.738660596534321 0  3.125 2.5 0  1.875 2.5 0  3.718973573227002 1.75927763286174 0  -2.491957142932539 1.738660596534321 0  -1.875 2.5 0  -9.375 2.5 0  6.2001972846108 1.772767401802766 0  5.625 2.5 0  5.027483518098582 1.760895488350309 0  5.625981449127788 0.6566963631252629 0  -12.30101114679273 1.859484693920165 0  9.742489932362783 1.884363450023167 0  -6.507510067637216 1.884363450023166 0  1.13492303295015 1.283502262067074
[...]
<PointData  Scalars="f_8840"> 
<DataArray  type="Float64"  Name="f_8840"  format="ascii">9.0380699818648827e-06  -5.9282657588157719e-07  -2.8065084797692176e-07  -2.9728998797359030e-07  -3.6376581017277596e-07  -3.7453734102628741e-07  -4.2117130130396970e-07  -6.4809673968286104e-07  -7.0292501968902032e-07  -1.0713497716336292e-06  -4.7890753922243647e-07  -1.1666055868121739e-06  -1.0101631048863226e-06  -1.2020746892510291e-06  -1.9331062305835842e-06  -2.9409337238199013e-06  -3.2098680691353373e-06  -3.6371816066540514e-06  -3.7310767951434141e-06  -4.3457307556394485e-06  -5.4870874493046414e-06  -5.9024591207616247e-06  -5.1494941944612513e-06  -6.6522175876054540e-06  -7.0375073291037757e-06  -7.5366534277526531e-06  -7.9219535545030694e-06  -7.4558453282522048e-06  -7.6334351658788018e-06  -9.1451810893941664e-06  -9.8654094487440981e-06  -1.1294093625198520e-05  -1.1601494463800289e-05  -1.0133580703475314e-05  -1.1238140386919081e-05  -1.1693067833523303e-05  -1.0832389065133076e-05  -1.3120874102858723e-05  -1.3085422438484703e-05  -1.1399706909917857e-05  -1.1232731396335505e-05  -1.3010713670387722e-05  -1.2814389378646798e-05  -1.1573518820695736e-05  -1.0551490763568563e-05  -1.0932715710924108e-05  -7.1898772059251918e-06  -1.0086562862170090e-05  -1.1884446192822602e-05  -1.1663820835110670e-05  -9.7441367020899235e-06  -9.5477511244940036e-06  -1.0370942410262430e-05  -9.7319809815960754e-06  -8.2086021493542975e-06  -6.6549706334947116e-06  -6.5195913236573410e-06  -5.9293829570563220e-06  -5.2767030428666490e-06  -5.0840031381574440e-06  -4.5311473517050127e-06  -3.6819093749977410e-06  -2.5541154652166150e-06  -2.1441282332169808e-06  -1.4152519639980997e-06  -6.3796119923714226e-07  1.7659742739114141e-07  8.2294253248145968e-07  1.4149330565665234e-06  2.4515814555163578e-06  3.2225883336276690e-06  3.6890248380831577e-06  3.9685564311742868e-06  5.2025780380101459e-06  5.9802210740666403e-06  6.0650883215783169e-06  6.6796052467519011e-06  8.2735062510529467e-06  5.5871925053990168e-06  8.3596908336011375e-06  9.3096503722776159e-06  1.0932350221247862e-05  1.1111016563102185e-05  1.0516720599369811e-05  9.9251406413521213e-06  1.0059812690857972e-05  1.1154182218804566e-05  1.2661423953281611e-05  1.2661557923608375e-05  1.1054909709112246e-05  1.1248412696946507e-05  1.2922203639943674e-05  1.2677773144446494e-05  1.1658406647045195e-05  1.1168432960723733e-05  1.2900563366964611e-05  1.2510961165193633e-05  1.0310931566351688e-05  1.0810928300604441e-05  1.0356681940872829e-05  8.9390503944335080e-06  8.6576397729051739e-06  1.0228892013718955e-05  9.8280234936137213e-06  9.3139641771870504e-06  9.0037270261273652e-06  7.2013788076313225e-06  6.5816116134450043e-06  6.5980838142911561e-06  6.6898022094564539e-06  6.1128155734462854e-06  4.5864117709958100e-06  4.1993372293020994e-06  4.2655134206988742e-06  3.1611149028792445e-06  2.4640389450067900e-06  3.4024247376056841e-06  3.0989839708873220e-06  2.3209269299207365e-06  2.5317222621620255e-06  1.0708295828785385e-06  1.0410644196995398e-06  9.6843831865489474e-07  9.1825427562766253e-07  7.9751629196264755e-07  5.4761065262713562e-07  4.6519081895372167e-07  3.6442272674816405e-07  3.1143817798906957e-07  2.8364014905625239e-07  2.7214825477241631e-07  -6.2989100246852154e-11  -1.5914864303832495e-07  -1.2985522889866895e-08  3.1434084549739142e-08  1.4888217719971554e-08  4.1207844899150668e-10  -3.0840199917329473e-08  -5.7401273456844400e-10  -2.2415563699196197e-08  -8.6408749076770317e-10  8.4416920423451255e-10  5.4826832470185970e-10  1.2976034979730786e-08  4.1925142571097731e-10  -3.5192967945887888e-08  -1.1438777796323122e-09  1.0850463001051681e-08  -1.1320585470678099e-08  1.1612438502553298e-09  2.3529887204355897e-08  6.1636473219178451e-10  -9.4568978780101897e-09  -8.6115467216926871e-11  7.0667502190626670e-09  -2.8495679662246936e-08  7.6741635603241851e-10  -2.6434268150810818e-08  9.5708375733976623e-10  2.3729614305849956e-08  -5.0517139475148113e-09  4.4323311780042419e-09  2.4999657582810296e-08  1.4304927279311264e-09  3.4918916743536036e-10  1.9512673470779962e-08  3.6590788960292752e-08  2.7728880689245258e-10  -8.8019930906557832e-12  -1.4564596663700069e-10  2.0979030966627850e-08  -1.0666351116157620e-09  -3.2655631293758766e-10  -2.2781484177487078e-08  -3.6480680766327582e-09  -1.9901671486618203e-10  5.4130132567436302e-10  4.3850801195648134e-10  -8.7508506935724580e-09  -3.1784008833259481e-08  1.7110401830040972e-09  1.4058932998009111e-09  -9.8649039265747370e-10  2.4056464156226875e-08  -2.8747096254143359e-08  1.1287403070886683e-10  -3.3276008717683860e-10  2.5197418551335281e-06  5.9119123477595900e-09  -3.9868593353264227e-08  3.0761172381736527e-10  -4.9964064549229708e-10  -2.9980211546315730e-10  8.8499227152414846e-10  4.0263256322011519e-10  2.9689723595182256e-08  -1.9567693793680451e-08  -7.2432205167709243e-10  -9.3657129134868135e-10  2.7653116182993361e-09  3.8687431903496435e-10  -1.0558488058353180e-10  -8.7083741445621304e-10  5.5212491980392412e-10  1.1160861459724660e-10  1.2753380573022409e-09  2.6888509700023034e-13  2.3785773029205123e-10  -5.0714669150171723e-10  1.2715307350729444e-10  -2.6600918591252285e-08  3.1309618850200359e-08  2.6243343648043781e-10  1.1999635613979297e-08  -2.0711315356397473e-09  1.0023763280713129e-08  -5.8274205774870454e-09  -1.9878164644425197e-10  -6.7108921083042761e-10  2.3631790221240295e-11  -1.6437477250354750e-09  -6.8819322267217445e-10  -1.0684672797333907e-10  -3.3486903682602123e-09  -9.3476768765640500e-11  7.8080060358597914e-10  4.1135124037588294e-10  5.0861342763213529e-08  -5.7707849022435121e-08  -1.3823828399121007e-10  3.4051796019510485e-08  -6.0338758177391113e-09  -6.1191610084416868e-09  -1.4227859271020182e-07  3.8446127624377032e-09  -3.9172630364328487e-11  -3.0216164659411216e-11  2.2213495654171927e-09  -9.1134016677595731e-11  3.0340554822128987e-10  -1.0739032768066964e-10  1.2282697700595239e-12  2.7131646491676389e-10  6.5245057307426840e-12  -2.0583426763327339e-10  1.2018299945682155e-10  1.1882072603233171e-08  1.6816068793554180e-09  5.3529072522642368e-10  4.2731924309643694e-09  1.2571983388534651e-10  2.1182649082058094e-10  -1.4511473674216660e-08  -8.0911426598259787e-09  -4.3103329010024962e-09  1.5582241919102978e-09  3.4762008438504472e-10  4.5420359045043335e-11  -8.0136006902487267e-10  6.3798292707773357e-10  -1.7197276168954214e-10  4.6064764961039610e-10  3.6905978938392168e-10  4.4903313567460896e-10  1.7165908170814906e-09  1.9402648869991923e-10  3.8929108152599009e-09  1.2368894680018015e-09  8.7994879962555188e-09  1.4221783628771518e-08  1.7450967181849378e-09  -4.8750141350870420e-08  -1.8667782527183503e-09  3.4048896142438334e-11  2.1504186944516759e-10  -5.8181356895829163e-08  -2.3383332105823835e-08  8.2196951065256357e-08  -3.3344483401648349e-08  3.0149861425410890e-08  -5.8487987351511596e-09  -2.2956923995539826e-08  -4.3507782202302173e-09  -2.5528549158632646e-08  4.9422526533027212e-08  4.4682757117853593e-09  -6.3585803076627583e-09  -1.1005036309090698e-08  2.2992666959099558e-08  -5.6816469327702348e-08  5.2121643920505851e-09  -7.3923810494811359e-12  -5.0430007976930879e-09  1.2556045145977531e-09  9.2757448245538725e-10  2.8068279112102973e-10  -9.5228376611918354e-09  -2.0293475452736526e-10  2.6040284894915562e-10  -2.5157317668965612e-09  -5.0803581124265629e-09  -2.6007166401696866e-09  -6.1715984963774657e-08  -1.7146825125958198e-08  -4.4058594492347377e-09  1.3055320207230739e-08  7.4166322375757931e-08  -1.3319903875601157e-08  6.5600635698827200e-11  4.6420134287798692e-08  -8.8293283258266163e-10  4.6071756547302747e-10  1.2196475837899905e-08  -6.3150148990468559e-09  -8.6025940478897016e-09  -5.2201747993804807e-08  6.8591961566016241e-08  -3.3447661011143132e-10  -9.3235861198993629e-10  -2.0131653241906076e-10  -8.4535549663297194e-11  7.0548829907651233e-09  3.6335630351167557e-09  2.3445129198488182e-10  -3.4161566036614976e-11  3.1424272207047015e-10  3.0489770197930971e-10  -4.7484435912136120e-09  3.1305222767479162e-08  -2.6147615684448130e-08  -6.8019671508544533e-09  7.2092744089816417e-10  -2.7632332939282052e-09  1.1512582049412100e-08  3.0212905772876187e-10  6.6696018854751930e-10  -2.8124425029918465e-08  1.1479771647864971e-09  1.7130565876486328e-09  4.2253849002200172e-08  4.8776667794771631e-07  -2.5721594908268704e-08  7.3117347121347734e-08  6.4107813184604694e-08  -3.8864541858199150e-09  -8.8250171378604968e-09  2.9665696118591399e-09  1.9393729403890553e-08  -7.0007785608878836e-08  -5.7215769681804656e-08  -5.3010154514236666e-08  -4.2912712377622822e-08  1.5598390536515999e-08  3.3285750868359606e-08  5.5441261783776343e-06  -8.4040967417930338e-09  2.2194888640241035e-08  -1.7706286163374585e-08  1.8818931299021483e-09  -7.9445334213795776e-09  2.2907912612733910e-10  -6.5399480622743078e-11  1.6781553097804889e-09  2.1250673964873630e-09  -4.0733032390252397e-11  9.7510540933915029e-10  1.3606495527876990e-08  6.9058612182885981e-09  7.3334641488248505e-11  1.8994531079044306e-12  4.4862354846562473e-10  -1.0592793059475685e-07  -1.9569667672507085e-10  -8.9955607637259630e-11  5.9606717953884334e-10  -5.8602998256995977e-11  -2.1422116145602850e-10  4.1889922839808181e-09  -2.9656891635002304e-10  -1.2859189869832049e-10  1.3520768456930711e-10  7.1610971563176622e-10  1.2702581375787459e-09  -4.7907169730155456e-10  1.8447048647337550e-10  1.3788630455097963e-08  1.2306996308687794e-09  -7.0621512750187692e-09  -4.8014966008331468e-09  -1.1207471054320223e-09  -7.6344361850193827e-09  5.8495185232866263e-10  1.3216744000463833e-10  1.5594236551656889e-09  3.0616808740930445e-10  -6.0162720523257959e-09  -3.0671608670018645e-10  9.0366985731483291e-11  3.0293566918294823e-09  1.1153248703634516e-09  8.7788604323743592e-10  1.5597252900539393e-09  -6.6920723096606873e-11  4.7781537830945360e-09  2.5336512269267657e-09  -1.1324074859076943e-08  5.7862195664083684e-09  3.7123894646345407e-09  2.3065760759216550e-10  1.0108913438588662e-10  -6.0756164095513489e-10  -3.1917317471856759e-10  -7.1453643945164981e-09  3.4715156389945902e-10  -5.1630153455501556e-11  -7.5579052683052898e-10  1.7364100698882422e-09  5.6242439659344943e-09  -4.3854016539812190e-10  9.0888369425241648e-10  2.1943046286476665e-10  -9.4833834062267210e-10  8.2425713032963503e-11  1.3591424502437890e-08  5.7900051115206186e-10  -3.1768187574080296e-10  -6.3532292746052146e-09  5.0508617691424181e-10  9.2575324359709810e-11  -1.6246885076271122e-10  2.1331494823071124e-10  6.4491170634012735e-09  -1.8316603354700862e-10  4.5478704459498041e-09  -2.7231229694055109e-08  -1.7426239968569560e-10  -4.3001004906782455e-09  -7.8315076316562579e-10  2.1911257845071908e-09  4.8184338571686630e-09  -6.1654572689898830e-10  2.5447540284036000e-09  2.2155970942421165e-09  -2.9530663334707786e-12  -8.7440739106565637e-09  8.2705194238887684e-10  -3.0246290765073719e-09  1.8306286273531372e-09  -1.4098435503665667e-08  -2.8336993563581597e-07  -1.5789376281565814e-07  -3.3152131799529847e-10  -1.3790360848258556e-08  1.7741741190119469e-09  2.8692023870980482e-08  -2.7106022751989046e-08  8.2506942201977786e-08  -6.2262354106638939e-08  2.5588347667919977e-10  1.2020570142982159e-10  1.6090366287458058e-10  -7.3656958157737116e-09  -1.6049262644257987e-10  1.4756673482890674e-09  -2.9509407220761916e-10  2.4129689923074331e-10  3.4895168981225109e-10  -6.8858108082061918e-10  -1.0751962366874104e-09  -5.8525297561894124e-10  -3.4204441335711995e-10  -4.1853955406769783e-09  -1.0539908494448056e-08  -1.0641597373123079e-09  -1.5129068087904075e-11  -7.7899881229694963e-12  8.5969680487699653e-08  -4.0903034618871376e-09  5.2052029684038364e-11  1.2280943150188210e-08  7.5472278869152970e-10  1.0100596267609596e-10  1.1402587553259599e-10  1.0998173216722638e-08  1.0544677773617127e-08  2.4330852275671836e-08  1.5053631714370666e-09  4.4888682701253003e-10  6.3626913103436409e-10  1.2133067795864311e-09  4.2322298415821316e-10  2.1070412896718286e-10  -4.9607315769640758e-11  1.7937875571750649e-08  -1.0367077753671924e-08  3.9782664645733255e-10  1.6040789389914687e-08  -1.6038257109177733e-08  2.6446266674151361e-10  7.2383059054109794e-10  5.9444633624685787e-11  -7.8638438715279234e-11  5.3915268239036409e-10  4.8084138094377814e-10  6.9025207464249462e-10  6.8053119214319650e-06  7.7584529565363662e-07  -4.3553975872537383e-09  7.6636303698204328e-12  -1.1509741846034405e-08  -2.3182530425283393e-08  -2.0755369020369458e-09  2.8488234044835348e-08  -1.5286174580227508e-10  -1.8981099490287804e-11  1.8844958977038034e-10  3.5514441844883361e-10  7.4260716787650390e-10  6.7944866214440162e-10  1.0934158485850524e-09  2.8414489246458087e-09  3.1782086443598256e-07  1.6837226742259991e-10  6.2684599885578663e-10  -4.8990940719776007e-09  -7.4242347901728974e-08  -3.2955164796601754e-10  4.4623566431013724e-10  -3.3229259945359830e-09  1.7387037433733584e-08  4.6099864398530940e-11  -6.4807384848305798e-10  -3.0891994809628018e-11  -2.4910981051424235e-08  -3.2863507089814369e-10  5.2683853410545080e-10  -1.2298631797736838e-09  7.6604725591368796e-09  5.3802891299924881e-10  7.8200094434801579e-09  -1.3172778300023898e-09  3.9987025339796012e-09  1.1526922266967073e-09  -1.0930129010347202e-07  5.3395453456819822e-10  4.2041286106284754e-10  1.4166479668300371e-10  -5.1226163728000018e-11  -2.2749065134484105e-10  3.2192726948814155e-10  -1.4632946488769234e-08  7.6537921518434321e-11  -1.1850176351665033e-08  1.4485856785520565e-08  2.8333154265290515e-10  3.8170341768109006e-10  2.4235866491089572e-08  -1.3277415709833464e-08  2.3526047565999812e-09  -2.8169951846942873e-10  -1.5912252177527272e-09  1.3881913740580319e-09  8.0135152833626798e-10  -7.3418051271747633e-11  8.3127383795295738e-08  -1.0851577833238884e-08  -1.0912354211090446e-08  -1.9430073688628061e-08  -3.8505010180653258e-09  3.2923083721771533e-10  -1.5623901286617152e-08  2.2233874461416134e-07  1.4149322552877648e-08  1.6336393957755259e-08  2.5710456587410635e-08  -1.1907547488502177e-08  8.0238182097060248e-10  -1.2011506907100398e-10  4.7081319895540772e-10  -1.6433318796857727e-08  4.3535282676033797e-10  -5.1726817028941847e-09  -1.4931659809985670e-08  6.4131324620226327e-08  1.0197787077818570e-10  6.9004220598501673e-10  -2.7795917323028935e-10  1.0156915691032080e-09  1.1795143602531323e-09  2.0404324706218268e-10  1.2105257553516017e-08  -6.1592779882123308e-10  -1.5241126018804711e-09  3.9155863046185137e-10  8.6355116616298285e-10  3.9129102586447536e-10  3.4867396901200212e-08  -1.1433136211814382e-10  -1.2043204894998413e-09  -1.6793926250581487e-09  2.5538247512105986e-10  7.6256437718855625e-09  -1.0530757798679913e-08  3.8757523473096343e-10  -2.1579858708202934e-10  -3.3060408483345642e-09  -2.7953744917867766e-08  -3.6090736800920365e-08  -2.0853911867089359e-09  3.0849443920223005e-09  -6.1899545267259606e-09  -1.4979936732626639e-10  1.6972987453701717e-10  2.5102671953292231e-09  -1.1019164475224755e-09  1.3737514927098682e-11  -1.2774675038271400e-10  -2.8333252495580180e-10  3.3166357490785965e-10  -3.2141806301161774e-10  2.7181001327397371e-09  1.0062818687561628e-10  1.7711298338703906e-08  7.0567627824707830e-10  7.6817935570128646e-10  -1.2233238009170416e-09  -2.3545295798065335e-09  2.0973880806272661e-08  3.8942447247850872e-08  3.0022244302117124e-10  1.8866934124687113e-10  -1.8559648925828419e-10  -8.7980410280801846e-11  -5.9885142824501496e-10  7.3505660958230606e-11  1.2787012107572922e-10  -3.6512259246287973e-09  -1.4353398382663472e-10  3.5013766214299559e-10  3.7556949015849533e-10  4.2015563361021531e-10  2.4358536213296109e-08  -2.2734001616411043e-09  2.1239602747738776e-09  -2.2593884900179909e-09  2.7853208447816582e-09  -6.5431190559911423e-08  1.2618544845649373e-09  1.4413582180856261e-09  -3.1410792641799050e-08  1.4164874857039939e-08  1.4946888201489484e-09  2.4226513027980196e-10  3.5251799406053029e-10  5.9637722905577439e-10  -1.8682829395299250e-08  -8.9092855605915485e-10  -4.3188555134626589e-10  -2.1052116678643936e-09  3.2987631259399989e-10  -2.5603947781139226e-09  4.0672628548332341e-08  3.1501023180041839e-08  -1.1720903392670666e-09  2.5123407980020307e-09  2.2858209148360907e-08  1.7725433496897966e-08  1.4679332344040550e-09  7.6425824520013805e-10  1.7762675326419900e-10  5.3173949653403370e-08  5.3124161266748072e-10  -1.2529471977446146e-09  4.9653280640830294e-10  6.1752369184130823e-10  1.2985581963773786e-07  -1.6144120731241536e-08  8.8312780640775634e-09  -9.8392919051535890e-08  -1.4145411179028467e-09  1.7101835307207974e-10  1.0470265191431463e-08  1.2492745387858647e-10  -2.0041766247927002e-10  4.4640024877841172e-08  -1.2828424454791050e-09  3.5864142349792666e-08  1.7873631265717231e-09  1.3160149267448976e-10  4.2329877313010260e-10  -4.2348903580174925e-11  -9.4979185559254130e-10  1.4644474419243114e-08  1.7798725116811881e-09  -3.6434606935320854e-08  -3.6517799940983637e-09  1.0594365006146009e-08  1.2667727018824111e-10  5.9431560945160328e-11  -3.0145347385593651e-11  -4.6629202093073497e-09  -1.8679385351026728e-09  2.2334172601699037e-10  -5.3949322242620877e-11  3.5974260945153166e-09  -3.7445380459449991e-10  8.5490446968742227e-11  -1.1356865636291532e-10  -2.7517587545114312e-10  -5.8879747286749891e-10  3.9799739674273917e-09  -6.0893813987757146e-11  1.6747994524629891e-09  -2.3381100652880331e-08  2.0519985427540892e-08  1.5223014002384359e-12  5.8909625381460699e-10  7.0584749898728128e-11  1.9350832222028920e-08  -7.5663953590072150e-10  2.3577597263792259e-09  -1.7045406181300962e-09  1.1720373871597058e-09  -3.3733534335285167e-09  1.7957195118227865e-08  -4.2931217827401531e-08  4.6550664285569551e-08  1.8798390400335551e-11  1.8010730029254882e-08  -1.6911333712867288e-08  -2.2694210465358106e-10  4.0115223380410497e-11  4.1284173762255029e-09  -2.6798252277279915e-08  -3.2190539443981592e-08  3.4069359783902851e-08  2.1718408392147810e-08  -1.2443918980864942e-10  -7.9966815195096443e-10  -1.0618396200346546e-10  -8.2592076004483924e-10  1.9445994263117711e-10  -6.4477256355335271e-10  -6.2258705512200007e-10  -2.0756829106618152e-09  6.1849182179053914e-09  -1.5078650629846154e-10  2.5286451752554246e-10  3.1605425138058768e-09  5.5207680223028878e-09  -7.7903594746930252e-10  -7.3100698504859891e-11  -3.1494244047837541e-10  -4.0325047902069547e-09  1.7887488244905685e-10  -7.0615480382814916e-09  4.0812232022951775e-09  -6.0779805638588283e-10  1.9963799935132721e-09  -1.4647542109433500e-08  -1.4339562470245833e-08  8.8545528830349916e-10  1.1104946902577780e-09  -3.9439312612891583e-11  9.1055283205995674e-11  -2.3045682136367427e-09  -6.8528272686044115e-11  2.7780473875593855e-09  -4.6039724000877024e-09  -5.1195996389510195e-08  3.3193020559308658e-10  -4.5539069495065746e-11  4.6526945934568286e-08  -1.0253269801614621e-08  1.0515177233157166e-08  2.2836133322507974e-10  9.6918868563861771e-11  4.8992977406360958e-11  1.4904253910992554e-08  2.7361435798017241e-08  -6.6087878590903736e-07  9.3070699941255521e-10  -5.2257226080343611e-08  5.4191219224257908e-08  1.7186120817688838e-08  1.2132191146100980e-10  -3.9332211816331574e-09  -9.9052371887393831e-11  -2.5699688611050470e-09  1.2274936457134485e-10  2.8691038915694937e-11  1.5659572965499140e-09  1.4919469059191849e-10  1.2323643122305869e-08  7.4839924138535593e-11  5.3924530155775483e-10  1.7465412942408082e-09  -1.3397797243375481e-07  4.4403189799167044e-08  1.0262011538685599e-08  -2.8339753773608146e-08  -1.4906130374625289e-09  -4.3573134552829869e-08  3.2921911027133400e-08  -1.6650690215974774e-10  1.1045305894259324e-10  2.4169483663947342e-10  -3.9102861940127002e-10  -8.6224217509602645e-10  -1.9150133995020106e-09  -7.3643674559934235e-09  3.0054558581695150e-08  6.4453755813383302e-11  -1.9768970257072935e-08  1.590