<?xml version="1.0"?>
<VTKFile type="UnstructuredGrid"  version="0.1"  >
<UnstructuredGrid>
<Piece  NumberOfPoints="2937" NumberOfCells="5112">
<Points>
<DataArray  type="Float64"  NumberOfComponents="3"  format="ascii">-20 2.5 0  -20 0 0  -1 0 0  -0.9996988186962042 0.02454122852291233 0  -0.9987954562051724 0.04906767432741797 0  -0.9972904566786902 0.07356456359966773 0  -0.9951847266721968 0.09801714032956083 0  -0.99247953459871 0.1224106751992163 0  -0.989176509964781 0.1467304744553618 0  -0.9852776423889412 0.1709618887603012 0  -0.9807852804032304 0.1950903220161286 0  -0.9757021300385285 0.21910124015687 0  -0.970031253194544 0.2429801799032641 0  -0.9637760657954398 0.2667127574748985 0  -0.9569403357322088 0.2902846772544624 0  -0.9495281805930367 0.3136817403988914 0  -0.9415440651830207 0.3368898533922203 0  -0.9329927988347388 0.3598950365349883 0  -0.9238795325112867 0.3826834323650899 0  -0.9142097557035307 0.4052413140049899 0  -0.9039892931234433 0.427555093430282 0  -0.8932243011955152 0.4496113296546069 0  -0.8819212643483549 0.4713967368259979 0  -0.8700869911087113 0.4928981922297841 0  -0.857728610000272 0.5141027441932218 0  -0.8448535652497071 0.5349976198870972 0  -0.8314696123025453 0.5555702330196022 0  -0.8175848131515836 0.5758081914178454 0  -0.8032075314806448 0.5956993044924335 0  -0.7883464276266062 0.6152315905806269 0  -0.773010453362737 0.6343932841636455 0  -0.7572088465064846 0.6531728429537766 0  -0.7409511253549589 0.6715589548470186 0  -0.7242470829514668 0.6895405447370671 0  -0.7071067811865475 0.7071067811865476 0  -0.6895405447370669 0.7242470829514669 0  -0.6715589548470184 0.740951125354959 0  -0.6531728429537765 0.7572088465064847 0  -0.6343932841636454 0.7730104533627371 0  -0.6152315905806267 0.7883464276266063 0  -0.5956993044924334 0.8032075314806449 0  -0.5758081914178453 0.8175848131515837 0  -0.555570233019602 0.8314696123025455 0  -0.534997619887097 0.8448535652497072 0  -0.5141027441932217 0.8577286100002721 0  -0.492898192229784 0.8700869911087115 0  -0.4713967368259977 0.881921264348355 0  -0.4496113296546067 0.8932243011955152 0  -0.4275550934302819 0.9039892931234434 0  -0.4052413140049897 0.9142097557035307 0  -0.3826834323650897 0.9238795325112867 0  -0.3598950365349882 0.9329927988347388 0  -0.3368898533922199 0.9415440651830208 0  -0.3136817403988914 0.9495281805930367 0  -0.2902846772544622 0.9569403357322089 0  -0.2667127574748983 0.9637760657954398 0  -0.2429801799032639 0.970031253194544 0  -0.2191012401568697 0.9757021300385286 0  -0.1950903220161282 0.9807852804032304 0  -0.1709618887603012 0.9852776423889412 0  -0.1467304744553616 0.989176509964781 0  -0.1224106751992162 0.99247953459871 0  -0.09801714032956065 0.9951847266721969 0  -0.07356456359966733 0.9972904566786902 0  -0.04906767432741801 0.9987954562051724 0  -0.02454122852291214 0.9996988186962042 0  6.123233995736766e-17 1 0  0.02454122852291226 0.9996988186962042 0  0.04906767432741813 0.9987954562051724 0  0.07356456359966745 0.9972904566786902 0  0.09801714032956077 0.9951847266721968 0  0.1224106751992163 0.99247953459871 0  0.1467304744553617 0.989176509964781 0  0.1709618887603014 0.9852776423889412 0  0.1950903220161283 0.9807852804032304 0  0.2191012401568698 0.9757021300385286 0  0.242980179903264 0.970031253194544 0  0.2667127574748984 0.9637760657954398 0  0.2902846772544623 0.9569403357322089 0  0.3136817403988916 0.9495281805930367 0  0.3368898533922201 0.9415440651830208 0  0.3598950365349883 0.9329927988347388 0  0.3826834323650898 0.9238795325112867 0  0.4052413140049899 0.9142097557035307 0  0.4275550934302822 0.9039892931234433 0  0.4496113296546066 0.8932243011955153 0  0.4713967368259978 0.8819212643483549 0  0.4928981922297841 0.8700869911087113 0  0.5141027441932217 0.8577286100002721 0  0.5349976198870973 0.844853565249707 0  0.5555702330196023 0.8314696123025452 0  0.5758081914178453 0.8175848131515837 0  0.5956993044924335 0.8032075314806448 0  0.6152315905806268 0.7883464276266062 0  0.6343932841636455 0.773010453362737 0  0.6531728429537768 0.7572088465064845 0  0.6715589548470183 0.7409511253549591 0  0.6895405447370669 0.7242470829514669 0  0.7071067811865476 0.7071067811865475 0  0.724247082951467 0.6895405447370668 0  0.7409511253549591 0.6715589548470183 0  0.7572088465064846 0.6531728429537768 0  0.773010453362737 0.6343932841636455 0  0.7883464276266063 0.6152315905806268 0  0.8032075314806449 0.5956993044924334 0  0.8175848131515837 0.5758081914178453 0  0.8314696123025452 0.5555702330196022 0  0.8448535652497071 0.5349976198870972 0  0.8577286100002721 0.5141027441932217 0  0.8700869911087115 0.492898192229784 0  0.881921264348355 0.4713967368259976 0  0.8932243011955153 0.4496113296546065 0  0.9039892931234433 0.4275550934302821 0  0.9142097557035307 0.4052413140049899 0  0.9238795325112867 0.3826834323650898 0  0.932992798834739 0.3598950365349881 0  0.9415440651830208 0.3368898533922201 0  0.9495281805930367 0.3136817403988915 0  0.9569403357322088 0.2902846772544623 0  0.9637760657954398 0.2667127574748984 0  0.970031253194544 0.2429801799032639 0  0.9757021300385286 0.2191012401568698 0  0.9807852804032304 0.1950903220161282 0  0.9852776423889412 0.1709618887603012 0  0.989176509964781 0.1467304744553617 0  0.99247953459871 0.1224106751992162 0  0.9951847266721969 0.0980171403295606 0  0.9972904566786902 0.07356456359966743 0  0.9987954562051724 0.04906767432741801 0  0.9996988186962042 0.02454122852291229 0  1 0 0  20 0 0  20 2.5 0  0 2.5 0  -10 2.5 0  10 2.5 0  -10.5 0 0  -5 2.5 0  10.5 0 0  5 2.5 0  -5.75 0 0  5.75 0 0  -15.25 0 0  -15 2.5 0  15.25 0 0  15 2.5 0  -17.625 0 0  -17.5 2.5 0  17.5 2.5 0  17.625 0 0  12.5 2.5 0  12.875 0 0  -12.5 2.5 0  -12.875 0 0  -2.5 2.5 0  2.5 2.5 0  -8.125 0 0  -7.5 2.5 0  8.125 0 0  7.5 2.5 0  -3.375 0 0  3.375 0 0  -18.75 2.5 0  20 1.25 0  16.4375 1.19375 0  -16.25 2.5 0  13.75 2.5 0  -14.0625 0 0  -11.6875 0 0  11.6875 0 0  8.75 2.5 0  -8.75 2.5 0  6.9375 0 0  6.25 2.5 0  -6.25 2.5 0  -9.3125 0 0  -6.9375 0 0  9.3125 0 0  11.25 2.5 0  -11.25 2.5 0  3.75 2.5 0  4.5625 0 0  -4.5625 0 0  -3.75 2.5 0  -13.75 2.5 0  14.0625 0 0  -16.4375 0 0  -20 1.25 0  -18.8125 0 0  18.75 2.5 0  -18.21875 1.2359375 0  18.125 1.278125 0  -15.84375 1.2125 0  -14.375 1.30859375 0  14.65625 1.203125 0  2.1875 0 0  -2.1875 0 0  13.125 1.315625 0  3.125 1.315625 0  -3.125 1.315625 0  -12.28125 1.1890625 0  -5.15625 1.184375 0  11.09375 1.184375 0  5.625 1.325 0  -10.97262068800044 1.220713793599868 0  9.375 1.32734375 0  -6.875 1.32734375 0  -9.67626828410207 1.24449497187193 0  8.061334925608099 1.312208731402025 0  -8.188665074391901 1.312208731402025 0  -1.25 2.5 0  1.25 2.5 0  4.37465139623265 1.41327350462657 0  16.25 2.5 0  6.84375467392576 1.430449641528851 0  -1.846573640185365 1.334702047669377 0  1.846573640185365 1.334702047669377 0  -17.02955351149946 1.396129584721571 0  16.4375 0 0  18.8125 0 0  -13.31314667860176 1.511193493282891 0  -4.122005747945582 0.961844908681634 0  12.12799425205442 0.961844908681634 0  15.54930641305724 1.660405980876393 0  19.0578783583929 0.9559530595267438 0  8.71875 0.6864560603786576 0  -7.53125 0.6864560603786576 0  -0.6257799091428727 1.819008129832856 0  0.6257799091428734 1.819008129832855 0  6.291331569065717 0.7194652423646902 0  -19.11204717950418 0.9044926794710327 0  -4.488713231834613 1.772186102355655 0  11.76128676816539 1.772186102355655 0  -19.28185607205105 1.781856072051052 0  19.30868080343342 1.808680803433421 0  9.90625 0.6371857066656857 0  -6.34375 0.6371857066656857 0  3.796921710049233 0.7617406159238448 0  7.392020585015773 0.7480839107774819 0  -8.910372062800235 0.7929553447587234 0  10.2506781820361 1.451853913138859 0  -5.999321817963904 1.451853913138859 0  4.957643119381741 0.7716423099297361 0  17.29984375 0.8640625 0  15.41193625859067 0.8279888354083842 0  -13.72251704931534 0.7728002662082776 0  16.875 2.5 0  17.12178336313261 1.690954734835967 0  -11.64001625260176 1.74572103154608 0  2.477726735235857 0.7850262278604345 0  13.46875 0 0  13.765625 0.7802887470308788 0  -2.78125 0 0  -2.477726735235857 0.7850262278604346 0  -10.33383379274331 1.744431431923121 0  13.91957519050334 1.653419259628842 0  -15.08147780274903 0.8341506893754731 0  -15.14066649024666 1.671962869821843 0  -8.950686484882164 1.678622661163363 0  -17.55392917606836 0.794731598412167 0  -16.80247533599675 0.6688259240674158 0  -12.94289066923278 0.7766744225472476 0  -9.90625 0 0  -10.31601468672093 0.7730817089126454 0  -18.21875 0 0  -12.28125 0 0  -17.68515668569534 1.768907656575843 0  18.21875 0 0  10.85059123027421 1.880344717307101 0  -5.399408769725794 1.880344717307101 0  -3.738137326223278 1.749164834446819 0  -3.125 2.5 0  12.46235897590077 1.601301060091387 0  -11.09375 0 0  -11.61661448001209 0.7781698802173554 0  -15.625 2.5 0  -1.764022608759088 0.6027229563180789 0  1.59375 0 0  -8.125 2.5 0  8.125 2.5 0  8.713468311289519 1.727645658498745 0  9.375 2.5 0  -7.536531688710481 1.727645658498745 0  -6.875 2.5 0  14.375 2.5 0  17.78381794101733 1.874391370085592 0  18.59891476281433 1.80649740393129 0  -18.58835555265984 1.824268641341969 0  1.806126122135773 0.6510673837470153 0  -16.875 2.5 0  -16.36681393636619 1.755298393865037 0  -16.13072438662071 0.6014017614895231 0  -13.92460230791385 1.83195710210235 0  -14.40198779087891 0.6105385965811564 0  20 0.625 0  19.40625 0 0  14.6875 1.888836596385542 0  14.65625 0 0  12.78248197181444 0.6991460920542635 0  -3.467518028185561 0.6991460920542635 0  13.125 2.5 0  2.491957142932539 1.738660596534321 0  3.125 2.5 0  1.875 2.5 0  3.718973573227002 1.75927763286174 0  -2.491957142932539 1.738660596534321 0  -1.875 2.5 0  -9.375 2.5 0  6.2001972846108 1.772767401802766 0  5.625 2.5 0  5.027483518098582 1.760895488350309 0  5.625981449127788 0.6566963631252629 0  -12.30101114679273 1.859484693920165 0  9.742489932362783 1.884363450023167 0  -6.507510067637216 1.884363450023166 0  1.13492303295015 1.283502262067074
[...]
<PointData  Scalars="f_2168805"> 
<DataArray  type="Float64"  Name="f_2168805"  format="ascii">5.7967798767732864e-02  -1.9203950987242355e-02  -9.1320746809178913e-02  -6.5114031322479851e-02  -8.4853646260575163e-02  -1.8685883092232916e-01  -2.3919772266618317e-01  -2.9051355703414616e-01  -4.0240082755359069e-01  -5.5752601970926452e-01  -6.0849850360173363e-01  -8.5295530778250495e-01  -1.0882833929303639e+00  -1.2858544306660344e+00  -1.4872484702518887e+00  -1.7794444176663662e+00  -2.1113988080464337e+00  -2.4713704146867466e+00  -2.8623474371883475e+00  -3.2166436468732567e+00  -3.6950459822571511e+00  -4.1979006257911902e+00  -4.6648490963407667e+00  -5.2536357104850016e+00  -5.8203641721307795e+00  -6.3696068109720168e+00  -6.9461639691707431e+00  -7.5152440612967393e+00  -8.0670092921055243e+00  -8.7652638867325230e+00  -9.2520864860225913e+00  -9.8917637402118093e+00  -1.0319733881605726e+01  -1.0807759391666957e+01  -1.1412210727395134e+01  -1.1854817629831601e+01  -1.2189782538918907e+01  -1.2778203603011388e+01  -1.2959316867229628e+01  -1.3219808726025358e+01  -1.3421456970966267e+01  -1.3617503223147407e+01  -1.3645739886829389e+01  -1.3637963452626515e+01  -1.3580477523784717e+01  -1.3572209238054601e+01  -1.3135398213374984e+01  -1.3128807866749483e+01  -1.3032076299802846e+01  -1.2652502489374069e+01  -1.2195252344572392e+01  -1.1794101600552438e+01  -1.1363892456016734e+01  -1.0750383529206569e+01  -1.0203096277987404e+01  -9.5015508102821862e+00  -8.9682595798382181e+00  -8.3128543748830204e+00  -7.3498332036616931e+00  -6.7310540809197335e+00  -5.9191863062795251e+00  -4.8629761874304043e+00  -4.0875270300583670e+00  -3.2014225343673579e+00  -2.2966816999530324e+00  -1.3655994608326065e+00  -4.2293455356462140e-01  5.7379942706749898e-01  1.3797058236716506e+00  2.3483128482533866e+00  3.3616342026110861e+00  4.1619765682285230e+00  5.0955910648869462e+00  6.0145040381676225e+00  6.8860535769718281e+00  7.6720971195409584e+00  8.4890761675525468e+00  9.3491365004793270e+00  9.8543615450108462e+00  1.0683204243025438e+01  1.1432795773946905e+01  1.2080245683476351e+01  1.2680216397288023e+01  1.3236029610393295e+01  1.3693580436578129e+01  1.4057496630919974e+01  1.4430879386210812e+01  1.4807528577302843e+01  1.5043854450935289e+01  1.5099549108500293e+01  1.5258525520686677e+01  1.5368201190347957e+01  1.5351712558790442e+01  1.5320199541665286e+01  1.5320099666862173e+01  1.5188731299777853e+01  1.4757281783781973e+01  1.4483955426231722e+01  1.4157895589431046e+01  1.3634149250752545e+01  1.3159527913491884e+01  1.2704911572706083e+01  1.2127558893887599e+01  1.1409304115442744e+01  1.0679129145361710e+01  9.8966102497015065e+00  9.1367611997369291e+00  8.3536679637911355e+00  7.5872687106309806e+00  6.6595601580699073e+00  5.7586275485222087e+00  4.9823509103581767e+00  4.2706231616303656e+00  3.4488686518923419e+00  2.9245291534299560e+00  2.3645777060132116e+00  1.9084494654386657e+00  1.3615129378974697e+00  1.0646444668872832e+00  8.0061032526965514e-01  6.5614264989103699e-01  4.9704663095452067e-01  3.6483228600467271e-01  2.5484316147552671e-01  1.6875701338292945e-01  1.1869320087360662e-01  8.3076173447121066e-02  5.6996715918431570e-02  3.0436854013843873e-02  1.5950900988416280e-02  2.1506474592333669e-02  1.1020980207540417e-07  5.9637789305997663e-08  -5.3901042062237519e+00  7.2690391757418066e-06  4.0796035037329615e-04  -6.9076965136001122e-06  1.3152346734091347e-02  4.8155283712425170e-04  2.0905829034416464e-02  -1.6897163883925825e-02  8.6037952583481042e-02  1.3346962408340662e-03  -1.5401549182967385e-04  9.6724831024153986e-07  4.3095892790987564e-06  4.2370729462402196e-03  1.8072100075118801e-03  2.7287947010395299e-07  1.3012062565351312e-07  5.1018569307457302e-05  2.4159741121715254e-05  -2.1685218317547437e-05  1.6507956307066802e-04  3.0045661443792915e-01  -1.4317014419151539e-01  -7.1054070474400096e-04  2.7892726144232780e-04  7.1961513259494233e-03  2.8522267564840740e-03  -3.4072857197574252e-01  8.1722019392186340e-01  1.3043403415692247e-02  1.0614687881875280e-06  1.9990615322357626e-06  -5.1078959252152369e-05  1.5633200978186846e-05  4.8551469465222901e-04  4.4973966473726859e-05  1.1276780367317525e-04  1.0738931877003050e-03  4.8140181275373710e-05  2.5500477439857779e-02  6.9597083115327512e-03  1.7464871068889264e-03  -1.2699525333933215e-04  -3.7643165338579728e-03  1.9318280366754743e-03  1.4306844644454617e-04  -5.3898092817280517e-06  4.4680196802179252e-02  2.7410947983344780e-01  -7.9728852617410390e-02  6.8830808641218100e-02  -4.2102081324279441e-05  4.9742943786873644e-06  2.8600266160703183e-03  -6.0891554500849265e-03  1.7400764375427155e-04  1.0857342268895487e-07  3.3492390938701135e-03  1.2572400143341410e-06  -5.0773944829966181e-05  -1.7891998090931003e-04  7.7226667258410335e-06  2.1908326987506839e+00  -1.4934777529886358e+00  3.3530071775430853e-05  -1.7223189836373157e-01  2.0209220472303838e-02  -1.1768654636683235e-05  3.8063747796319661e-03  2.0656813674404682e-04  9.5940679657149520e-03  -2.4148922074045291e-06  7.3513838652961645e-04  5.6287792524858883e-04  9.5722705135346556e-06  2.0566813378987544e-03  1.1039142159981420e-04  -6.8274052494485826e-01  -5.2861687136657709e+00  -1.9562526940305542e-02  1.1434281627641430e-06  5.1302058071827391e-04  -5.0038420019828089e-01  -2.1762999656987008e+00  -4.9765300531090322e-04  2.0568390548193975e-07  1.6924445255032337e-07  -1.3301604006042125e-04  -1.7691786196192709e-02  7.9234958159853889e-05  4.4069431562774452e-06  1.0898634527003871e-06  3.1479492014043287e-03  -5.3467311125896205e-04  -2.1094441954338250e+00  -9.7097457407817664e+00  3.5329662096146838e-02  -4.9232824352689331e-03  3.2311572374167548e-02  1.1407939101198694e-04  1.4524762107542995e-02  1.0703478894377597e-06  9.0462623568171108e-04  -3.2741466993102737e-03  3.1435954600965410e-01  1.1637013623937908e-02  -6.4463552562504320e-05  3.5414728163460726e-04  2.2295686333246691e-03  1.1384052396721846e-01  1.3380917495891120e-06  2.9599473501955268e-06  1.8926703074921859e-04  6.0970328997273754e-07  1.6681109094697876e-06  -3.0236484004732651e-05  8.4112548520483521e-01  1.0741790216651199e-05  1.2542800851845622e-05  -7.2018581701060314e-01  -5.9925531855865566e-01  1.7236147411429424e-06  1.8467211668156518e-05  6.0117099488905996e-04  -8.9855562694667176e-04  5.6225989291677703e-05  3.6199345346459265e-03  2.8438596172596781e-03  8.7625756719924463e-05  -3.9471678280990878e-05  -1.0263440446188687e-06  3.5880010910459346e-03  8.6527575891402308e-05  -1.8608562166873681e-03  1.0927674409821795e-07  2.1043452741969270e-04  1.0063557026450431e-02  7.0592534702794238e-02  1.5965811549325870e-01  6.7162152032448376e-05  1.8157166313868841e-05  2.2006608801031454e-05  -1.1442792325495534e-04  -2.0159120780703499e+00  2.8826420503768357e+00  1.4917399326867719e-04  1.7561919638375962e-03  3.5983275741268371e-04  6.8375971910492159e-04  4.2425594175501876e-04  6.4587784593129463e-04  8.7071620212535843e-06  1.2898304715265917e-06  1.1262592781869588e-06  4.3245816389221245e-03  1.8345954426860067e+00  5.4389815354512596e-04  -1.8831889739941809e-03  1.9648002585535831e-03  -3.2501047132527452e-04  5.0468370556312433e-04  1.0847946381010739e-06  2.4821859775221076e-07  9.3544498190855327e-06  2.0439951918431564e-06  3.3735416116888052e-05  -1.3421262235189885e-01  2.7496992955426625e-05  -1.4157960834127887e+00  4.4396625698382430e-02  -1.8798266071537544e+00  -2.0524458751145883e-01  1.5933424741466959e-01  3.1345325196989521e-01  2.1960250089915621e-05  -9.6932120499577650e-03  1.3505816766730233e-02  -3.7114289307720080e-02  7.2383708526996965e-02  -6.9226674732143006e-05  3.7145513458455772e-04  1.9113432507732063e-03  -4.5875121751278938e+00  -1.9160466028848779e+00  1.3881236860773598e-04  -2.7166869302605309e-02  4.0858498715283889e-04  -6.9413681624652486e-03  2.6495782902758340e-06  6.9348649105663007e-01  5.0143219478725442e-07  1.5328258359207297e-06  -2.5032669279704205e-04  6.5544591450988612e-03  -7.2338393753791587e-04  7.3572417411535015e-02  -6.9117910864984742e+00  -1.1960936669151688e-05  5.4160933886749640e-05  -1.8076861409838269e-01  2.1462263412922356e-05  -3.0167109895939633e-05  1.0865503679211938e-06  5.0915277060847560e-03  -2.7188711390313788e-05  1.6639331635305403e-03  -3.5380411775076562e-03  -2.6496439138386750e-02  -8.7556059950290758e-05  4.9243212513772157e-03  3.8042079834434459e-02  -7.3247273806375413e+00  6.8722749635087849e-07  1.9396464878895227e-07  -1.1022555143971090e-05  3.7003212560423646e-02  8.2852393876757258e-05  3.2959202435137183e-02  -5.6636467209959358e+00  -3.2208143546261945e+00  2.3345643734404452e-06  1.8915161203603825e-02  1.0450303634238149e-06  1.3012179922751635e-07  2.4321921974036734e-04  4.3067420457354724e-03  -1.4976403852559989e-03  1.3510160586837593e-05  1.2605192527496443e-06  -3.6478923413031293e-02  2.3779670979237144e-04  3.3906640474223329e-06  -6.0830703625048600e-04  1.5893443718530492e-04  -1.5115830014392724e-04  7.4972735493929012e-05  -1.6859836304985508e-03  1.7716214641050687e-03  -3.2224024679453764e+00  8.5168743142460151e-04  2.8589207931120305e-04  1.5569806627657964e-01  -2.7295977114739293e-04  1.3816904700244451e-02  4.7803345057987617e-01  -7.5280447641471729e-03  9.8466659594141181e-04  4.8392804938475385e-02  -1.4988725535795993e-03  3.8003109636113620e-03  3.8514689119392037e-03  2.0112531461692774e-03  1.3996775640920043e+00  1.2952890395448396e-07  -4.4893355378415722e-01  4.2420500256465942e-05  1.6340709795201716e-01  -2.0621617815018273e-02  4.4447204173017743e-04  1.0736887961509205e-06  2.5740726111300483e-01  1.5599503647927880e-03  -2.5227199880878022e-03  2.4648731766576573e-02  2.5937776414053778e-06  -7.4877433108731919e-02  1.3732416918384410e-06  -4.2056406061406530e-05  -1.2202777772936484e-04  7.4428815549739508e-06  4.6003085830188771e-03  2.9439494386846945e-04  -1.2495696631859105e-04  -3.0138173981619889e-03  3.7374045890388920e-03  3.7131532576783195e-03  1.2796145869117394e-04  1.6740266065612467e-03  7.5390155507054930e-03  -1.9836228764817210e-04  1.5032502615199919e-04  1.5911893410552698e-03  9.0708408469361004e-04  3.7576095633359342e-04  7.7750240235846128e-05  4.0325067979768954e-03  3.2975237922377898e-03  9.6571992644771810e-07  -7.5300823802613256e-02  7.6152479528943380e-05  4.8655463275400041e-06  5.0861584526663822e-06  -3.8348973206933199e-03  -3.8202643147996096e-01  1.3800648726307773e-02  1.2055820415909515e-06  1.1967834730452724e-06  2.1811117168769399e-05  4.6690437810692098e-02  1.7108052940255989e-03  1.2594296767806709e-01  -2.9263077537200664e+00  4.7631522055643737e-07  2.2533572789730074e-04  -1.0552048492272419e-05  1.2793218688876896e-06  2.8386175021145318e-05  2.0690002755945327e-05  1.3628996246326138e-05  -9.1147761736991696e-04  1.3120864444186791e-05  2.7907832765020792e+00  5.2342360482714284e-05  -3.5058377754098408e-01  -2.0114070577178209e-01  -5.8830649196059716e-03  -2.5089270259226106e-02  -3.0239138819059177e-02  4.0908915637775508e-03  1.8143113672121741e-06  -2.9595041168911753e+00  -6.3296011769196059e-01  -8.5861978912634189e+00  -6.1675647068349138e+00  -7.4348116190481166e+00  2.1742223416276190e-04  9.5569863235132337e-04  1.5205900402297187e-06  -8.4362123577036791e-02  2.0272209690659665e-06  3.4797496044268086e-05  1.5800523858394805e-06  1.0436195051409562e-06  1.7947298414244480e-05  2.5943891287042884e-04  -2.0977949181734505e-02  4.9404479016175280e-05  1.5735119658259668e-03  1.6538759280604550e-02  1.5076029927984928e-04  1.2212054984260462e-05  5.2368765637783596e-03  -7.2345277703021662e-04  -2.2907329764770032e-03  -3.0142315756669538e-03  6.9695939399361376e-05  -4.5924416919431728e-04  6.4252527931688369e-02  2.9666925518977916e-02  3.1085226617603736e-05  1.6341101486419037e-02  1.2411683362827733e-06  1.3414631786727407e-01  1.5597855164523137e-04  1.4128248052690012e-02  9.0382157067648807e-05  1.8374674315511378e-02  -2.6845525193551478e-05  -1.2747791119960980e-04  -2.9167171757900917e-06  7.7184587765900809e-07  2.7332813450227370e-06  3.5430763843856660e-05  -4.4758470988352377e+00  -7.6764141889698667e+00  1.1055230249097624e-06  3.1992149561675177e-04  5.1754657507525328e-04  -3.2564144899287993e-04  9.9146241660400545e-04  -2.6199987180892865e-05  4.7857600004146985e-04  4.1692522706436301e-02  5.0819620134629734e-02  8.9467680936251076e-07  -2.0344811422698180e-04  9.3789816002618417e-03  2.2019481788181582e-03  -9.0771729425543624e-01  -3.9957643965919797e-02  1.9424789772980525e-02  1.0428002366677803e-02  -2.0158277185100308e-05  9.8200245197247902e-04  6.3547770967981314e-04  -9.2592131525667080e-03  1.4389567087464211e-01  6.2252509735709449e-01  -3.4041987105528394e-03  9.6643412004535287e-02  2.1879829839264520e-01  2.1398468922118973e-05  -3.2910413332347495e+00  3.2576811304465656e-03  4.4247287470163293e-05  -1.8881202142456907e-01  1.3327042980735124e-01  1.1705098942514199e-06  -1.7669320638248884e-03  4.0037360141223572e-06  1.3263588651110966e-03  5.1797609963703058e-04  1.9256811521934449e-04  -3.6421497860507894e-04  -1.8364411308871042e-05  -1.3931788749229507e-05  7.3063068466322961e-02  8.7049115359684600e-05  5.5947419227931847e-05  2.5823084159066085e-05  -4.1028852533730591e+00  1.4281151667508852e-03  -3.9489914427136251e-03  1.4633464598693254e-04  3.9675941807360238e-04  2.8893162648022488e-05  1.8045186846022413e-06  -1.5716346400701403e-03  1.1410440752162994e-02  -8.8203443307290386e-01  1.7260002593416599e+00  -1.4729960312436802e-03  2.9849623506849107e-03  1.3383050766002373e-07  1.0537300046652372e-06  -6.7891007705466085e-04  -6.3910981175833757e-06  -2.0056106904546392e-01  3.8963983484444686e-02  -2.0812593773833057e-02  1.1267656385757039e-05  -3.3079641653437211e+00  8.2296142027645416e-02  -8.1135149524558869e-01  2.1664304383963917e-06  1.0142174584398669e-05  -6.5994519634854799e-04  -1.2542505887624047e+00  2.3855178700854518e-02  4.9245326925711683e-04  4.9560320435948100e-04  1.0365390824587160e-03  -2.6332314051349783e-03  6.4409416724831035e-06  1.2434120577037269e-06  8.0294729581190485e-04  5.6437938644762856e-05  -3.7322012518700706e-06  1.4753146265951294e-06  -7.1190591906271730e-04  3.9085829647703685e+00  6.7230503526399846e-06  1.3502851214278339e-01  -6.8785695892677448e-07  3.7625934390036159e-01  2.4321882088251335e-04  3.9657900763478478e-06  -3.8431775430943416e-04  1.6694905848351624e-04  -5.8942949646310569e-02  1.5014094447569706e-01  9.5485911661428238e-03  -2.3068352479251958e-04  4.0425891098257683e-03  1.8774812205900164e-03  3.1043120622947649e-06  -4.1470280275393193e-05  3.3522138100324869e-06  -1.8401807618715113e-01  -3.6609694759750457e-05  -1.0967008699595543e-01  6.2909779937468605e-03  2.7304268326989008e-04  -1.7261772253398424e+00  -6.1036966164646378e+00  -9.3187301455834176e-02  -2.6327209587752681e-02  -1.4344979324247180e+00  4.7035600406189745e-02  8.9929637572589378e-07  1.1682722474492520e-06  -5.1540649870815101e-03  1.6539007695166782e-05  1.4310257538239067e-04  2.2577809994930060e-05  1.1646211828278248e-06  -1.1824402641861937e-04  1.2919130596451739e-06  4.8064526202180374e-06  -6.9601522112526307e-03  5.9036209978590424e-04  4.2070277029921586e-04  5.7328733656538929e-04  6.0952761610364014e-03  -1.5364070382135726e+00  -4.0488855348469199e-01  1.6525631656570498e-02  3.2532060620767992e-03  3.0542717928133921e-03  3.1842697411629665e-03  1.2248494338320114e-03  3.6045424009644475e-03  -1.7594346555535964e-04  -5.9236808856244616e-01  -4.6317492714070090e-03  3.5894151914692841e-02  4.1249792896070718e-02  -5.7353994377487718e-05  2.1887661160103264e+00  2.3723776073159331e-04  -1.8390856178276227e-03  -7.7257666527673829e-04  -1.4304828428025754e-03  -8.8520488318918584e+00  3.6101432711122453e-06  5.2040557083132107e-02  3.4374491258075579e-03  -3.9862811480015373e-02  4.0839377780693659e-01  1.1674920529291625e-06  -2.5352500700571604e-02  3.3263954137508378e-04  -1.7984558423756135e-03  -1.3501002505065304e-01  -2.1156755798455960e-02  2.6648785482869292e-03  1.2509868526774116e-06  2.7875688218643801e-04  6.7846738972656990e-03  1.8496703889459414e-04  5.4637714246773394e-03  2.9371876895193564e-05  1.1379205954223045e-04  2.5072969583724649e-02  1.3483274200133602e-01  -4.6077980309178144e-06  1.6524091088105888e-06  -8.7236847845485843e-01  4.9026191846669818e-04  8.1864124779940930e-04  -2.6040069177945997e-03  4.7946622664772502e-02  -4.3004023835972891e+00  -4.2867085403883403e+00  1.2368150706481833e+00  2.0507619764684595e+00  4.7604364913500560e-05  1.3133094670733398e-06  -1.2067150048799825e-05  3.6590021794562330e-04  -1.7552881376309920e-02  1.1731828725261759e-03  9.2993873357058779e-04  5.3844007136014940e-04  4.7694251121492424e-04  -7.7080255365695089e-05  2.8510812655227017e-06  1.3093318641843150e-03  2.3538721949039895e-07  8.4187905477198305e-07  3.7094280400520102e-01  -1.7033844230870004e-06  1.1197976048471863e-06  6.3020179200530173e-03  3.6860636802714740e-03  1.4737671290054020e-06  5.2174602288949507e-05  -3.1312991868304868e-01  -1.1099831348043067e-01  3.6605141439538229e-05  1.1320153672821716e-03  -1.2327455029390200e-03  -1.1486985221331479e-05  6.4498354959990596e-04  5.5630467522112465e-04  2.7018819026649335e-04  -6.0233928156093342e-03  6.5487678057093537e-05  8.2987941080384257e-07  3.3836609490043280e-03  3.1087491553824405e-03  -1.0198177968850748e-04  1.7418625590764377e-04  -2.7154139897900081e-04  -3.1567595741843974e-04  -2.3178941494504375e-04  -2.4371661748021932e-04  8.7433969062174094e-05  1.5121307801043419e-06  8.1423270409854176e-06  9.5123818509311761e-06  6.6524161597218007e-06  -2.1858471833894932e+00  3.0441410084801235e+00  2.7541229482166884e-05  -3.5077249865554465e-05  -7.0571417770820568e-05  9.8646559805860678e-07  1.8017119678731310e-07  7.7387134415363676e-06  -8.5560272950198719e+00  -5.6828467078374905e+00  -2.3139311533030877e+00  -1.1141109764373561e-03  1.6380260420123486e-04  -5.9772284978708125e-03  1.0130769788560667e-04  -3.2829361823216274e-02  1.1326152017617870e-04  -5.9021007751233909e-02  -4.2572748174394312e-04  2.5451777145006588e-03  3.5060769479143324e-06  1.8657929752012939e-03  2.3611606429676025e-03  5.3360038915569008e-01  9.4424993857297335e-01  2.4461727668131123e-06  2.2910553749714884e-06  2.3484358945998979e-07  -5.2459596780926876e-02  9.1565140838037809e-02  1.6777539046488641e-05  3.5027758449771197e-04  2.1402922876697038e-03  1.2998823478354762e-03  4.0344599589717787e-04  1.5195608083988191e-03  4.6771493847498407e-04  1.0316877484372619e-06  2.8354835765964463e-07  1.0511412822895506e-06  1.8937262208361450e-05  2.1154544561300969e-03  3.8921929521983048e-05  4.3960547425430412e-07  1.1052826591580605e-05  5.4761801984114650e-02  7.7717196677717991e-04  -1.3912914291140972e+00  5.8651663365030518e-03  2.4647477706663814e-04  7.0104972784784789e-04  -4.3567351022017500e-04  7.7956794944741541e-03  3.8085233729489178e-05  4.4712252781599149e-03  -2.5661231907242895e-02  2.1667910072894545e-01  -7.1681403745856098e+00  -3.3487318210852662e-01  -4.7724972737437605e+00  1.1863046899386596e-07  -7.9466137745742388e-06  9.2546135821259032e-07  -4.5457893374092872e-05  -7.5053915782803961e-05  -5.5700394847338567e-05  2.7109258669496344e-01  1.3653825050950244e-05  -1.1244681901433054e-02  2.1543834359656415e-06  1.1703221564196910e-01  -1.1639783010958141e-04  -1.3008678870423170e-02  -2.7472102735459809e-02  -1.8129376618968650e-04  -1.4286729804335492e+00  1.5147206367068443e-06  -8.5239652316609931e+00  -2.5286499595176353e-02  -2.0142833085164789e-05  9.4164736997240275e-04  -6.3688965761161415e-03  1.7674504862755851e-04  -3.5952790805469564e-02  3.3314038398344108e-05  -5.2909867332069294e-01  -1.7359175890048584e-03  9.9244079884751172e-05  3.8663779017330191e-06  6.6092611875733203e-07  1.3987589496176887e-06  -9.2762041489605629e+00 