<?xml version="1.0"?>
<VTKFile type="UnstructuredGrid"  version="0.1"  >
<UnstructuredGrid>
<Piece  NumberOfPoints="2912" NumberOfCells="5086">
<Points>
<DataArray  type="Float64"  NumberOfComponents="3"  format="ascii">-20 2.5 0  -20 0 0  -1 0 0  -0.9996988186962042 0.02454122852291233 0  -0.9987954562051724 0.04906767432741797 0  -0.9972904566786902 0.07356456359966773 0  -0.9951847266721968 0.09801714032956083 0  -0.99247953459871 0.1224106751992163 0  -0.989176509964781 0.1467304744553618 0  -0.9852776423889412 0.1709618887603012 0  -0.9807852804032304 0.1950903220161286 0  -0.9757021300385285 0.21910124015687 0  -0.970031253194544 0.2429801799032641 0  -0.9637760657954398 0.2667127574748985 0  -0.9569403357322088 0.2902846772544624 0  -0.9495281805930367 0.3136817403988914 0  -0.9415440651830207 0.3368898533922203 0  -0.9329927988347388 0.3598950365349883 0  -0.9238795325112867 0.3826834323650899 0  -0.9142097557035307 0.4052413140049899 0  -0.9039892931234433 0.427555093430282 0  -0.8932243011955152 0.4496113296546069 0  -0.8819212643483549 0.4713967368259979 0  -0.8700869911087113 0.4928981922297841 0  -0.857728610000272 0.5141027441932218 0  -0.8448535652497071 0.5349976198870972 0  -0.8314696123025453 0.5555702330196022 0  -0.8175848131515836 0.5758081914178454 0  -0.8032075314806448 0.5956993044924335 0  -0.7883464276266062 0.6152315905806269 0  -0.773010453362737 0.6343932841636455 0  -0.7572088465064846 0.6531728429537766 0  -0.7409511253549589 0.6715589548470186 0  -0.7242470829514668 0.6895405447370671 0  -0.7071067811865475 0.7071067811865476 0  -0.6895405447370669 0.7242470829514669 0  -0.6715589548470184 0.740951125354959 0  -0.6531728429537765 0.7572088465064847 0  -0.6343932841636454 0.7730104533627371 0  -0.6152315905806267 0.7883464276266063 0  -0.5956993044924334 0.8032075314806449 0  -0.5758081914178453 0.8175848131515837 0  -0.555570233019602 0.8314696123025455 0  -0.534997619887097 0.8448535652497072 0  -0.5141027441932217 0.8577286100002721 0  -0.492898192229784 0.8700869911087115 0  -0.4713967368259977 0.881921264348355 0  -0.4496113296546067 0.8932243011955152 0  -0.4275550934302819 0.9039892931234434 0  -0.4052413140049897 0.9142097557035307 0  -0.3826834323650897 0.9238795325112867 0  -0.3598950365349882 0.9329927988347388 0  -0.3368898533922199 0.9415440651830208 0  -0.3136817403988914 0.9495281805930367 0  -0.2902846772544622 0.9569403357322089 0  -0.2667127574748983 0.9637760657954398 0  -0.2429801799032639 0.970031253194544 0  -0.2191012401568697 0.9757021300385286 0  -0.1950903220161282 0.9807852804032304 0  -0.1709618887603012 0.9852776423889412 0  -0.1467304744553616 0.989176509964781 0  -0.1224106751992162 0.99247953459871 0  -0.09801714032956065 0.9951847266721969 0  -0.07356456359966733 0.9972904566786902 0  -0.04906767432741801 0.9987954562051724 0  -0.02454122852291214 0.9996988186962042 0  6.123233995736766e-17 1 0  0.02454122852291226 0.9996988186962042 0  0.04906767432741813 0.9987954562051724 0  0.07356456359966745 0.9972904566786902 0  0.09801714032956077 0.9951847266721968 0  0.1224106751992163 0.99247953459871 0  0.1467304744553617 0.989176509964781 0  0.1709618887603014 0.9852776423889412 0  0.1950903220161283 0.9807852804032304 0  0.2191012401568698 0.9757021300385286 0  0.242980179903264 0.970031253194544 0  0.2667127574748984 0.9637760657954398 0  0.2902846772544623 0.9569403357322089 0  0.3136817403988916 0.9495281805930367 0  0.3368898533922201 0.9415440651830208 0  0.3598950365349883 0.9329927988347388 0  0.3826834323650898 0.9238795325112867 0  0.4052413140049899 0.9142097557035307 0  0.4275550934302822 0.9039892931234433 0  0.4496113296546066 0.8932243011955153 0  0.4713967368259978 0.8819212643483549 0  0.4928981922297841 0.8700869911087113 0  0.5141027441932217 0.8577286100002721 0  0.5349976198870973 0.844853565249707 0  0.5555702330196023 0.8314696123025452 0  0.5758081914178453 0.8175848131515837 0  0.5956993044924335 0.8032075314806448 0  0.6152315905806268 0.7883464276266062 0  0.6343932841636455 0.773010453362737 0  0.6531728429537768 0.7572088465064845 0  0.6715589548470183 0.7409511253549591 0  0.6895405447370669 0.7242470829514669 0  0.7071067811865476 0.7071067811865475 0  0.724247082951467 0.6895405447370668 0  0.7409511253549591 0.6715589548470183 0  0.7572088465064846 0.6531728429537768 0  0.773010453362737 0.6343932841636455 0  0.7883464276266063 0.6152315905806268 0  0.8032075314806449 0.5956993044924334 0  0.8175848131515837 0.5758081914178453 0  0.8314696123025452 0.5555702330196022 0  0.8448535652497071 0.5349976198870972 0  0.8577286100002721 0.5141027441932217 0  0.8700869911087115 0.492898192229784 0  0.881921264348355 0.4713967368259976 0  0.8932243011955153 0.4496113296546065 0  0.9039892931234433 0.4275550934302821 0  0.9142097557035307 0.4052413140049899 0  0.9238795325112867 0.3826834323650898 0  0.932992798834739 0.3598950365349881 0  0.9415440651830208 0.3368898533922201 0  0.9495281805930367 0.3136817403988915 0  0.9569403357322088 0.2902846772544623 0  0.9637760657954398 0.2667127574748984 0  0.970031253194544 0.2429801799032639 0  0.9757021300385286 0.2191012401568698 0  0.9807852804032304 0.1950903220161282 0  0.9852776423889412 0.1709618887603012 0  0.989176509964781 0.1467304744553617 0  0.99247953459871 0.1224106751992162 0  0.9951847266721969 0.0980171403295606 0  0.9972904566786902 0.07356456359966743 0  0.9987954562051724 0.04906767432741801 0  0.9996988186962042 0.02454122852291229 0  1 0 0  20 0 0  20 2.5 0  0 2.5 0  -10 2.5 0  10 2.5 0  -10.5 0 0  -5 2.5 0  10.5 0 0  5 2.5 0  -5.75 0 0  5.75 0 0  -15.25 0 0  -15 2.5 0  15.25 0 0  15 2.5 0  -17.625 0 0  -17.5 2.5 0  17.5 2.5 0  17.625 0 0  12.5 2.5 0  12.875 0 0  -12.5 2.5 0  -12.875 0 0  -2.5 2.5 0  2.5 2.5 0  -8.125 0 0  -7.5 2.5 0  8.125 0 0  7.5 2.5 0  -3.375 0 0  3.375 0 0  -18.75 2.5 0  20 1.25 0  16.4375 1.19375 0  -16.25 2.5 0  13.75 2.5 0  -14.0625 0 0  -11.6875 0 0  11.6875 0 0  8.75 2.5 0  -8.75 2.5 0  6.9375 0 0  6.25 2.5 0  -6.25 2.5 0  -9.3125 0 0  -6.9375 0 0  9.3125 0 0  11.25 2.5 0  -11.25 2.5 0  3.75 2.5 0  4.5625 0 0  -4.5625 0 0  -3.75 2.5 0  -13.75 2.5 0  14.0625 0 0  -16.4375 0 0  -20 1.25 0  -18.8125 0 0  18.75 2.5 0  -18.21875 1.2359375 0  18.125 1.278125 0  -15.84375 1.2125 0  -14.375 1.30859375 0  14.65625 1.203125 0  2.1875 0 0  -2.1875 0 0  13.125 1.315625 0  3.125 1.315625 0  -3.125 1.315625 0  -12.28125 1.1890625 0  -5.15625 1.184375 0  11.09375 1.184375 0  5.625 1.325 0  -10.97262068800044 1.220713793599868 0  9.375 1.32734375 0  -6.875 1.32734375 0  -9.67626828410207 1.24449497187193 0  8.061334925608099 1.312208731402025 0  -8.188665074391901 1.312208731402025 0  -1.25 2.5 0  1.25 2.5 0  4.37465139623265 1.41327350462657 0  16.25 2.5 0  6.84375467392576 1.430449641528851 0  -1.846573640185365 1.334702047669377 0  1.846573640185365 1.334702047669377 0  -17.02955351149946 1.396129584721571 0  16.4375 0 0  18.8125 0 0  -13.31314667860176 1.511193493282891 0  -4.122005747945582 0.961844908681634 0  12.12799425205442 0.961844908681634 0  15.54930641305724 1.660405980876393 0  19.0578783583929 0.9559530595267438 0  8.71875 0.6864560603786576 0  -7.53125 0.6864560603786576 0  -0.6257799091428727 1.819008129832856 0  0.6257799091428734 1.819008129832855 0  6.291331569065717 0.7194652423646902 0  -19.11204717950418 0.9044926794710327 0  -4.488713231834613 1.772186102355655 0  11.76128676816539 1.772186102355655 0  -19.28185607205105 1.781856072051052 0  19.30868080343342 1.808680803433421 0  9.90625 0.6371857066656857 0  -6.34375 0.6371857066656857 0  3.796921710049233 0.7617406159238448 0  7.392020585015773 0.7480839107774819 0  -8.910372062800235 0.7929553447587234 0  10.2506781820361 1.451853913138859 0  -5.999321817963904 1.451853913138859 0  4.957643119381741 0.7716423099297361 0  17.29984375 0.8640625 0  15.41193625859067 0.8279888354083842 0  -13.72251704931534 0.7728002662082776 0  16.875 2.5 0  17.12178336313261 1.690954734835967 0  -11.64001625260176 1.74572103154608 0  2.477726735235857 0.7850262278604345 0  13.46875 0 0  13.765625 0.7802887470308788 0  -2.78125 0 0  -2.477726735235857 0.7850262278604346 0  -10.33383379274331 1.744431431923121 0  13.91957519050334 1.653419259628842 0  -15.08147780274903 0.8341506893754731 0  -15.14066649024666 1.671962869821843 0  -8.950686484882164 1.678622661163363 0  -17.55392917606836 0.794731598412167 0  -16.80247533599675 0.6688259240674158 0  -12.94289066923278 0.7766744225472476 0  -9.90625 0 0  -10.31601468672093 0.7730817089126454 0  -18.21875 0 0  -12.28125 0 0  -17.68515668569534 1.768907656575843 0  18.21875 0 0  10.85059123027421 1.880344717307101 0  -5.399408769725794 1.880344717307101 0  -3.738137326223278 1.749164834446819 0  -3.125 2.5 0  12.46235897590077 1.601301060091387 0  -11.09375 0 0  -11.61661448001209 0.7781698802173554 0  -15.625 2.5 0  -1.764022608759088 0.6027229563180789 0  1.59375 0 0  -8.125 2.5 0  8.125 2.5 0  8.713468311289519 1.727645658498745 0  9.375 2.5 0  -7.536531688710481 1.727645658498745 0  -6.875 2.5 0  14.375 2.5 0  17.78381794101733 1.874391370085592 0  18.59891476281433 1.80649740393129 0  -18.58835555265984 1.824268641341969 0  1.806126122135773 0.6510673837470153 0  -16.875 2.5 0  -16.36681393636619 1.755298393865037 0  -16.13072438662071 0.6014017614895231 0  -13.92460230791385 1.83195710210235 0  -14.40198779087891 0.6105385965811564 0  20 0.625 0  19.40625 0 0  14.6875 1.888836596385542 0  14.65625 0 0  12.78248197181444 0.6991460920542635 0  -3.467518028185561 0.6991460920542635 0  13.125 2.5 0  2.491957142932539 1.738660596534321 0  3.125 2.5 0  1.875 2.5 0  3.718973573227002 1.75927763286174 0  -2.491957142932539 1.738660596534321 0  -1.875 2.5 0  -9.375 2.5 0  6.2001972846108 1.772767401802766 0  5.625 2.5 0  5.027483518098582 1.760895488350309 0  5.625981449127788 0.6566963631252629 0  -12.30101114679273 1.859484693920165 0  9.742489932362783 1.884363450023167 0  -6.507510067637216 1.884363450023166 0  1.13492303295015 1.283502262067074
[...]
<PointData  Scalars="f_6765445"> 
<DataArray  type="Float64"  Name="f_6765445"  format="ascii">1.0212005672739577e+00  1.0192137123911873e+00  1.0374204235546667e+00  1.0433130113802322e+00  1.0604166081355471e+00  1.1299985942192956e+00  1.1797064780262592e+00  1.2276265095187668e+00  1.3230617711327293e+00  1.4286351093972627e+00  1.4937501883741298e+00  1.6848125398066085e+00  1.8543310720494106e+00  2.0134406780583953e+00  2.2010972083880938e+00  2.3873648247348185e+00  2.6286092107572081e+00  2.8732130792162667e+00  3.1511339757063475e+00  3.4109386460731130e+00  3.7687142834276051e+00  4.1211128890169295e+00  4.4387221807021087e+00  4.8990123414626208e+00  5.2978623447377222e+00  5.7005037408854617e+00  6.1475463208275043e+00  6.5709468200389756e+00  6.9660398014594680e+00  7.5339466794817405e+00  8.0245489893578199e+00  8.5577780251522100e+00  8.9389957763871806e+00  9.3656665551189171e+00  9.9552450642411987e+00  1.0365267192953119e+01  1.0692263274500791e+01  1.1404330374533084e+01  1.1890387312365911e+01  1.2213089160260326e+01  1.2442524553431630e+01  1.2818775205928983e+01  1.3054834912109051e+01  1.3251338657898865e+01  1.3417244451653353e+01  1.3670711336944066e+01  1.3489365867126363e+01  1.3794187048199628e+01  1.4064641999829044e+01  1.4057561144301177e+01  1.3957388459387280e+01  1.3931963989774029e+01  1.3845540474846398e+01  1.3732795959357890e+01  1.3564247931849579e+01  1.3363526768584800e+01  1.3181595152273291e+01  1.2943311457129481e+01  1.2575512690251905e+01  1.2320375963719094e+01  1.2006896087173814e+01  1.1636186863946623e+01  1.1304328770159838e+01  1.0894295377946865e+01  1.0480454179003853e+01  1.0066101138379034e+01  9.6321313385582190e+00  9.2057642681941818e+00  8.7484661774737678e+00  8.3909971932855498e+00  7.8832364965063357e+00  7.4690309038403502e+00  7.0010113546899193e+00  6.4904976264132532e+00  6.0984515296624018e+00  5.6298477322590443e+00  5.2088666513063906e+00  4.7280957296910504e+00  4.3472629041387236e+00  3.9645807339370376e+00  3.5611414185950854e+00  3.1881379088506683e+00  2.8648677433254051e+00  2.5051105240521756e+00  2.1961451009321937e+00  1.9212579473429801e+00  1.6439258421838232e+00  1.3923435492568410e+00  1.1881529154052681e+00  9.1309315401161650e-01  7.5057001736321061e-01  5.9462949901545503e-01  4.9413229370218570e-01  3.3015577452041123e-01  2.2892889012897019e-01  1.9690606884353598e-01  1.5852756993396974e-01  7.4991176550836064e-02  9.0208250176294233e-02  1.0851179158422948e-01  6.2114096204114025e-02  9.5509409282747135e-02  1.9466533182525039e-01  2.2822662462326626e-01  3.1865771940449339e-01  4.1071284751783121e-01  4.1247574245918683e-01  5.1382054124512577e-01  5.4773362936746828e-01  6.7501204436910067e-01  7.1006596990791371e-01  7.4365577465324728e-01  7.2850552408295721e-01  7.8978104146998784e-01  8.6234211844072950e-01  9.0728128400016250e-01  8.8182859836250305e-01  9.1086279506975387e-01  9.3584276108747144e-01  9.6003130008902116e-01  9.2303747225568555e-01  9.3682645410405652e-01  9.4717362234029157e-01  9.5785836853289308e-01  9.6854576251088653e-01  9.5896620957415013e-01  9.5890849051299165e-01  9.5815672141178210e-01  9.7159104713098254e-01  9.7518658221699295e-01  9.6863656170140777e-01  9.9999997852579459e-01  9.9999996913146949e-01  9.6882467694076428e+00  9.9999989375124121e-01  9.9999947158252844e-01  1.0000013466986657e+00  9.9751706771015858e-01  1.0000065295481129e+00  1.0041086636244991e+00  1.0085110302028546e+00  9.8925644953554048e-01  9.9943980029805723e-01  1.0000891156531531e+00  9.9999998933719114e-01  1.0000000137397715e+00  9.9807149403706552e-01  1.0009417744244768e+00  9.9999998134452295e-01  9.9999994950261561e-01  9.9999982655037611e-01  1.0000003703861116e+00  1.0000015635664210e+00  9.9997505102917450e-01  9.2309130410970874e-01  1.2339669757088230e+00  1.0001995635209155e+00  9.9999003794430152e-01  9.9982419649191290e-01  1.0000639609900519e+00  1.2198837797863156e+00  8.2736202243711554e-01  1.0022394512100994e+00  9.9999917146512096e-01  9.9999914105902266e-01  1.0003585206085537e+00  9.9999995260377561e-01  9.9986828638798286e-01  9.9999725902501724e-01  1.0000019834987368e+00  9.9999545398637146e-01  9.9999870376991051e-01  9.9796837306876907e-01  1.0007795926165330e+00  9.9972758203408230e-01  1.0000222517753998e+00  1.0015725141200176e+00  1.0000038429265903e+00  9.9999925386180266e-01  1.0000002341214753e+00  1.0245323507329300e+00  9.5031455456475700e-01  1.0468559578202017e+00  9.8209192749335772e-01  1.0000016008781298e+00  1.0000000592990972e+00  9.9863322829394918e-01  1.0261485712235352e+00  1.0013265636171422e+00  9.9999997421918829e-01  1.0012534733257155e+00  9.9999910923923196e-01  1.0003900957934293e+00  1.0001421276617894e+00  9.9999913975466403e-01  5.7493861643342237e-01  2.0613701813911267e+00  9.9999897433106433e-01  1.3203697373331031e+00  1.0124538343454370e+00  1.0000049477526658e+00  9.9774806457984277e-01  9.9999823835912549e-01  1.0113249908427979e+00  1.0000004308872903e+00  1.0000129046888582e+00  9.9976232542863186e-01  9.9999802805028715e-01  1.0002224760833072e+00  9.9996247630273327e-01  2.3498449210668402e+00  7.2505143516444601e+00  1.0677240608595406e+00  9.9999998402986934e-01  1.0027377842334688e+00  1.4709739929707939e+00  3.6103379784514473e+00  1.0016436440744179e+00  1.0000000514118159e+00  9.9999991425709933e-01  1.0000519568918829e+00  1.0102206364148936e+00  9.9999927001092115e-01  9.9999898843220503e-01  9.9999924632629178e-01  9.9996403950110213e-01  1.0001309122839783e+00  4.0114202798555363e+00  1.1521508444081535e+01  9.9737509052484841e-01  1.0106761860956399e+00  9.8574144641455952e-01  9.9999734280670582e-01  1.0073256512976738e+00  9.9999910132655967e-01  1.0000013778332357e+00  1.0011939974204580e+00  9.7905910779388539e-01  9.9946956728263781e-01  1.0000086548991047e+00  9.9999696251466608e-01  9.9901567081178810e-01  9.9095284546309947e-01  9.9999918855450165e-01  9.9999917643739988e-01  9.9996106819430208e-01  9.9999993803430265e-01  9.9999896889280826e-01  1.0000037786483207e+00  1.1088237223165607e+00  1.0000001690925597e+00  9.9999931287514521e-01  1.4993273257077733e+00  1.4253808914283370e+00  9.9999973612113113e-01  9.9999893613478441e-01  9.9979979754348303e-01  1.0006940425531172e+00  9.9999059624291065e-01  9.9878154863696089e-01  9.9870426124761291e-01  9.9998812145570404e-01  1.0000050254843393e+00  1.0000001323884995e+00  9.9876126260845277e-01  9.9999133710872312e-01  1.0044897504084658e+00  9.9999994393960023e-01  9.9999501122455259e-01  9.9567573649490981e-01  9.7386314724358325e-01  9.5792925609823165e-01  9.9999831463549371e-01  9.9999940835256018e-01  9.9999874184169202e-01  1.0001401711923692e+00  2.4105425558875031e+00  5.2204663840148202e-01  9.9998690503187393e-01  1.0000135312375142e+00  1.0000869630404194e+00  1.0000018581306558e+00  9.9987845219717741e-01  9.9997006185670845e-01  9.9999992759158407e-01  9.9999903140148094e-01  9.9999905912503795e-01  1.0047314565072198e+00  1.2025627058786470e+00  1.0004304707912881e+00  1.0021111354939938e+00  9.9906793014743367e-01  1.0001438499884228e+00  9.9983454662724813e-01  9.9999933065135160e-01  9.9999985282729453e-01  9.9999906102044411e-01  1.0000000088670218e+00  9.9999947929140165e-01  1.0854845718596606e+00  9.9999992812860095e-01  2.1227594490823711e+00  1.0556845610017316e+00  2.4898665826887840e+00  1.1918126899275399e+00  1.0061011808535330e+00  1.0239328547043223e+00  9.9999960545667665e-01  1.0081057418453192e+00  1.0014282666695291e+00  1.0370029226015325e+00  9.9252822354249759e-01  1.0000123801381877e+00  9.9999694812724937e-01  9.9926445467974079e-01  7.8180528574306107e+00  2.8035250264348517e+00  1.0000005291757823e+00  1.0141010577214646e+00  1.0000016808155421e+00  1.0028876108128424e+00  9.9999899342680243e-01  9.0873535643645553e-01  9.9999998090450448e-01  9.9999931908588213e-01  1.0000506460656275e+00  9.9978647967944834e-01  1.0010681032468620e+00  1.3628411892013077e+00  6.6462944345223232e+00  1.0000009892294213e+00  1.0000009008589150e+00  1.1152541462722265e+00  9.9999769031038077e-01  1.0000028852343894e+00  9.9999932913360690e-01  1.0011610017482768e+00  1.0000002568182373e+00  1.0017293811736623e+00  1.0032905535647252e+00  1.0306345865552313e+00  1.0000261853155472e+00  1.0001426560010154e+00  1.0078719070169009e+00  9.3994969452735688e+00  1.0000000286692317e+00  9.9999993525259878e-01  1.0000004736516819e+00  9.9548532408635682e-01  9.9999975743640712e-01  9.9137769863782066e-01  9.5362834383845225e+00  5.9381914017360975e+00  9.9999998204589013e-01  1.0271446548905292e+00  9.9999907133174282e-01  9.9999994434373674e-01  9.9999927086210982e-01  9.9952057178071774e-01  1.0013247351541574e+00  9.9999946522980887e-01  9.9999932847464101e-01  1.0200826390784052e+00  1.0000034956050929e+00  9.9999926739351019e-01  1.0003563046917441e+00  9.9996625769033909e-01  1.0002743578777149e+00  9.9999160277531096e-01  1.0005712662565485e+00  9.9999293660699173e-01  3.1989713767213330e+00  9.9969826151584928e-01  9.9993966160337122e-01  9.7507072288419316e-01  1.0000569197030507e+00  9.9929719397596994e-01  9.0233740375542426e-01  1.0033916449981015e+00  1.0000092615582721e+00  9.9501244750132145e-01  1.0004955692224518e+00  9.9996224147816126e-01  9.9811074722096549e-01  9.9904222829162836e-01  7.1828860743915868e-01  9.9999998710572291e-01  1.3886025163801474e+00  9.9999874273527867e-01  9.4135879288862412e-01  1.0178624796690730e+00  1.0003706755302786e+00  9.9999935215071512e-01  9.5999670247132118e-01  9.9924524305058993e-01  1.0031954053313252e+00  9.9786082740174575e-01  9.9999917859102727e-01  1.0688485794595064e+00  9.9999908902600165e-01  1.0000172454019627e+00  1.0000741184033717e+00  9.9999927635306551e-01  9.9826381081803017e-01  9.9999363139697950e-01  1.0000299314896139e+00  1.0023306115510020e+00  1.0045040435087533e+00  9.9851705047152406e-01  9.9999867429479383e-01  1.0068909504092156e+00  1.0040241913138124e+00  1.0000642308386272e+00  9.9992738992186991e-01  1.0000751804508170e+00  9.9970482896783697e-01  1.0000174362074410e+00  9.9999841937687295e-01  9.9855183067112163e-01  1.0005228537220976e+00  9.9999940169577706e-01  1.0421213412569148e+00  1.0000005581048086e+00  9.9999913969115184e-01  9.9999910920110235e-01  1.1054247837484477e+00  1.2614811593442095e+00  1.0208495433199689e+00  9.9999915322365740e-01  9.9999906749239165e-01  9.9999929990171266e-01  9.8547987460563979e-01  1.0010320716264660e+00  1.1103278291755154e+00  3.2154610991573866e+00  9.9999989674235268e-01  9.9995799428913124e-01  1.0000025246942148e+00  9.9999900300381050e-01  9.9999883609963458e-01  9.9999904865143574e-01  9.9999910114832735e-01  1.0006753140605913e+00  9.9999908829954820e-01  2.3205297576361450e+00  9.9999903178152239e-01  1.6291928306199361e+00  1.2071714405281935e+00  1.0079819181493652e+00  1.0323856581464173e+00  1.0311337622801475e+00  9.9802465378126282e-01  9.9999916738741113e-01  3.1125114859807255e+00  2.3934957590293013e+00  1.0000412827810301e+01  7.7288776824901992e+00  1.0622545528443574e+01  9.9995560703518394e-01  9.9960284322372150e-01  9.9999942353274951e-01  1.0862315946890646e+00  9.9999900369500661e-01  9.9999630097033998e-01  9.9999913206584612e-01  9.9999940499779849e-01  9.9999971653294284e-01  1.0000024138961958e+00  1.0105124560978238e+00  9.9991927674064074e-01  1.0000075891561071e+00  9.9418585168817619e-01  9.9999668121454977e-01  9.9999897546873118e-01  9.9986042232712724e-01  1.0001976124621750e+00  1.0154214529675769e+00  1.0031813689196993e+00  9.9999275671450016e-01  1.0059248640490404e+00  9.9150153390892293e-01  1.0015738761472035e+00  9.9999813869943355e-01  1.0039795176368564e+00  9.9999915246143167e-01  1.0056732708272882e+00  9.9999715525866717e-01  9.9365478036777444e-01  9.9999832431268332e-01  9.9392124044417851e-01  9.9999714665034767e-01  1.0000211176065334e+00  9.9999810540237510e-01  9.9999932836770389e-01  9.9999924736301082e-01  9.9998936531343796e-01  7.3399195574734355e+00  1.0772588902894737e+01  9.9999932343938802e-01  9.9999835560967931e-01  1.0000006605231664e+00  9.9978356510206867e-01  9.9944322923123285e-01  9.9989876006729506e-01  1.0000020706707164e+00  1.0221639592530123e+00  9.9960723486753333e-01  9.9999920457306024e-01  1.0000386381608524e+00  1.0012926148233146e+00  1.0000369985696229e+00  1.6975801255705756e+00  1.1287219337477665e+00  9.9838685264761051e-01  1.0003712999218233e+00  1.0000023803902105e+00  1.0000039491269255e+00  1.0000046746674405e+00  1.0042256898838413e+00  1.1018757232227125e+00  8.5040103343381446e-01  1.0288134585921707e+00  1.0142720893592068e+00  9.5734781735478325e-01  9.9999903866436057e-01  3.1210936384442989e+00  1.0000426467244483e+00  1.0000001377892940e+00  1.1150597744705748e+00  1.1198628033939331e+00  9.9999919470602561e-01  1.0020530407844996e+00  9.9999953163052024e-01  1.0000049926117396e+00  9.9992959809316251e-01  1.0000010465611178e+00  1.0003036664519183e+00  1.0000015455401705e+00  1.0000014890743607e+00  1.0231543682077657e+00  9.9997929426324539e-01  9.9999390205971772e-01  9.9999497906234769e-01  8.9453182823033313e+00  1.0000013940126362e+00  1.0015739779906960e+00  9.9998718087150273e-01  9.9988660500758764e-01  1.0000073157698168e+00  9.9999947030769698e-01  1.0015335087186119e+00  9.9938473234494829e-01  1.5990650807347599e+00  6.0219570266139899e-01  1.0004759227372761e+00  9.9996621174188727e-01  9.9999996186220574e-01  9.9999912924208556e-01  1.0006853240342104e+00  1.0000001697510272e+00  1.1525813902576572e+00  1.8068873030149082e+00  1.0205441053038169e+00  9.9999956464981998e-01  4.2840886166014949e+00  9.7828175983381205e-01  1.6163035821631415e+00  9.9999986742919900e-01  9.9999870765201448e-01  1.0001409863041437e+00  1.9797678921834223e+00  1.0127074497968727e+00  1.0000227938866586e+00  9.9988141527835217e-01  1.0007212649873567e+00  1.0043230351234957e+00  9.9999898085231487e-01  9.9999920841266554e-01  1.0000472462758363e+00  9.9999877172091489e-01  1.0000002459730706e+00  9.9999914755932284e-01  1.0004599498321110e+00  4.4126362489989263e-01  9.9999951893911843e-01  9.7755049670680472e-01  1.0000008068492476e+00  1.1538345503483927e+00  9.9993170316355207e-01  1.0000001069609177e+00  1.0001819802964684e+00  1.0000025690955963e+00  1.0348486344723726e+00  1.0167542146696125e+00  1.0007646918098139e+00  1.0005926004440890e+00  1.0003502978169974e+00  1.0000653431418653e+00  9.9999902981286815e-01  1.0000071966028636e+00  9.9999991470229999e-01  1.1755117591486290e+00  1.0000044069065968e+00  1.1110943851539168e+00  9.9994272349753843e-01  1.0000996521051526e+00  4.4343504362817878e+00  6.9458735701151824e+00  1.0576970456426447e+00  1.0777831533838118e+00  2.4547917953047373e+00  1.0035203253909628e+00  9.9999948086281076e-01  9.9999904633767600e-01  1.0043839891732584e+00  1.0000000278147330e+00  9.9997729366847965e-01  1.0000012441115909e+00  9.9999922101307948e-01  1.0002618839870729e+00  9.9999899197816589e-01  9.9999914814411150e-01  1.0063089743000595e+00  9.9976540681505088e-01  1.0002083685714567e+00  1.0034163047319891e+00  9.9735735182769447e-01  2.2639683527548415e+00  1.6389713028224249e+00  1.0004483830268949e+00  9.9843433318788466e-01  9.9838316409433803e-01  9.9870827440250853e-01  1.0000275069316351e+00  9.9996433410930041e-01  1.0000261651304556e+00  1.5646872013407838e+00  1.0422051312588627e+00  9.9687978848923819e-01  9.9530821043873652e-01  1.0000137723847329e+00  5.8470677267250837e-01  9.9999655907390406e-01  1.0033110114558514e+00  1.0011024679896341e+00  1.0020816208726451e+00  1.0700711205465590e+01  9.9999913591586165e-01  9.8834759280156037e-01  1.0001957246779967e+00  1.0370896157076719e+00  9.1436266142230949e-01  9.9999933673887620e-01  1.0133693519314264e+00  1.0000050719219018e+00  1.0050397151297776e+00  1.2140104309059985e+00  1.0252110610192804e+00  1.0025221041910559e+00  9.9999903811337731e-01  9.9999485366227003e-01  9.9923488793673532e-01  1.0000000354648446e+00  9.9773552214191330e-01  9.9999903900044751e-01  9.9999800929327864e-01  9.9232616549747088e-01  9.7700997328090478e-01  1.0000003043844232e+00  9.9999917525780768e-01  2.4222159010940545e+00  1.0015404046130123e+00  1.0005974348782813e+00  1.0096308540918433e+00  9.7987506214577014e-01  4.3992848776853171e+00  4.5832828652928388e+00  7.1529993285534599e-01  4.5308779647200312e+00  9.9999867485098726e-01  9.9999999479655133e-01  1.0000001641702518e+00  1.0000043146661097e+00  1.0087710666682177e+00  9.9981867154575677e-01  9.9975214595609563e-01  9.9999788282421032e-01  9.9999766150672220e-01  1.0000118138654039e+00  9.9999935835764797e-01  9.9940493289638832e-01  9.9999995642773343e-01  9.9999929562197554e-01  9.2902982401309919e-01  1.0000000136995522e+00  9.9999906381104831e-01  1.0075814781231687e+00  9.9809015655212285e-01  9.9999916994184712e-01  9.9999945626167319e-01  1.2052964146152596e+00  1.0857417118625985e+00  9.9999916626147045e-01  9.9957427397333909e-01  1.0011923256941502e+00  1.0000016507499523e+00  9.9979257583008019e-01  9.9980814790963290e-01  1.0000003341517700e+00  1.0024368474250132e+00  9.9999934013756386e-01  9.9999955220297099e-01  1.0035103173371283e+00  1.0080265635706425e+00  1.0000372465964453e+00  9.9996417861421361e-01  1.0025583003928535e+00  1.0001709556811589e+00  1.0000865809645509e+00  1.0000970616936340e+00  9.9999801031388402e-01  9.9999894779189569e-01  9.9999899854631968e-01  9.9999927786617004e-01  9.9999918132348631e-01  2.5974398886572061e+00  5.3975060690852850e-01  9.9999996053312179e-01  1.0000039822984035e+00  1.0000122188849245e+00  9.9999944112104000e-01  9.9999993108144603e-01  9.9999937120601412e-01  1.1016945583464514e+01  8.4922622054690944e+00  4.5296455711975305e+00  1.0009424101232616e+00  9.9999944046243050e-01  1.0032168050140136e+00  9.9999986609440050e-01  1.0185563356215865e+00  1.0000013355405251e+00  1.0325403642031765e+00  1.0047554717181966e+00  9.9997212544433678e-01  9.9999895189442123e-01  9.9927256764697081e-01  9.9888524977279214e-01  9.1726390289192450e-01  7.7967082734878068e-01  9.9999905500009134e-01  9.9999919928307990e-01  9.9999990209213729e-01  1.0605063556450309e+00  9.8588288288409109e-01  9.9999933494962934e-01  9.9999555308145471e-01  9.9903679925052125e-01  9.9947187526426351e-01  9.9999374612189107e-01  9.9958701193650090e-01  1.0000055778647616e+00  9.9999945228594245e-01  1.0000000020188184e+00  9.9999956213685592e-01  9.9999733105047472e-01  9.9890519959164537e-01  9.9999837422491933e-01  9.9999996830870219e-01  9.9999992706619756e-01  9.9388620968025743e-01  9.9971061822489582e-01  3.3970433025172686e+00  9.9862208620779935e-01  9.9999508407059723e-01  9.9998589605819621e-01  1.0000967529939113e+00  9.9966586217539410e-01  9.9999992128248427e-01  1.0095829963747383e+00  1.0400382047629790e+00  1.0894641467359831e+00  8.1473612649858680e+00  1.7056848860160538e+00  4.5931553252896125e+00  9.9999999934482575e-01  1.0000002713312819e+00  9.9999944162977539e-01  1.0000062316481697e+00  1.0000100458837082e+00  1.0000074175551903e+00  1.1114802641942201e+00  9.9999956004688906e-01  1.0119083719455357e+00  9.9999912098991084e-01  9.8371442827996813e-01  1.0000350167369196e+00  1.0128026133629895e+00  1.0282949689756460e+00  1.0000561317332626e+00  2.0197576301841815e+00  9.9999906051765730e-01  9.4628054505451864e+00  1.2347728871619064e+00  9.9998743407121737e-01  1.0000054249969361e+00  1.0027656029530350e+00  1.0000022428837125e+00  1.0184427882955969e+00  9.9999583739904174e-01  1.3498843895579873e+00  1.0027906713615338e+00  9.9999363590829760e-01  9.9999912214562114e-01  9.9999997914176442e-01  9.9999897840790364e-01  1.1290410445592398e+01  9.6652004065217039e+00  6.6783055044243129e+00  1.0049615882182519e+00  9.9999995811136799e-01  1.0000001085079198e+00  9.9999922096773319e-01  2.8444551253534294e+00  9.9999934710774074e-01  2.9591705859422950e+00  9.9999955784094408e-01  9.9999926994760857e-01  9.9999918352449280e-01  9.9999959