<?xml version="1.0"?>
<VTKFile type="UnstructuredGrid"  version="0.1"  >
<UnstructuredGrid>
<Piece  NumberOfPoints="2937" NumberOfCells="5112">
<Points>
<DataArray  type="Float64"  NumberOfComponents="3"  format="ascii">-20 2.5 0  -20 0 0  -1 0 0  -0.9996988186962042 0.02454122852291233 0  -0.9987954562051724 0.04906767432741797 0  -0.9972904566786902 0.07356456359966773 0  -0.9951847266721968 0.09801714032956083 0  -0.99247953459871 0.1224106751992163 0  -0.989176509964781 0.1467304744553618 0  -0.9852776423889412 0.1709618887603012 0  -0.9807852804032304 0.1950903220161286 0  -0.9757021300385285 0.21910124015687 0  -0.970031253194544 0.2429801799032641 0  -0.9637760657954398 0.2667127574748985 0  -0.9569403357322088 0.2902846772544624 0  -0.9495281805930367 0.3136817403988914 0  -0.9415440651830207 0.3368898533922203 0  -0.9329927988347388 0.3598950365349883 0  -0.9238795325112867 0.3826834323650899 0  -0.9142097557035307 0.4052413140049899 0  -0.9039892931234433 0.427555093430282 0  -0.8932243011955152 0.4496113296546069 0  -0.8819212643483549 0.4713967368259979 0  -0.8700869911087113 0.4928981922297841 0  -0.857728610000272 0.5141027441932218 0  -0.8448535652497071 0.5349976198870972 0  -0.8314696123025453 0.5555702330196022 0  -0.8175848131515836 0.5758081914178454 0  -0.8032075314806448 0.5956993044924335 0  -0.7883464276266062 0.6152315905806269 0  -0.773010453362737 0.6343932841636455 0  -0.7572088465064846 0.6531728429537766 0  -0.7409511253549589 0.6715589548470186 0  -0.7242470829514668 0.6895405447370671 0  -0.7071067811865475 0.7071067811865476 0  -0.6895405447370669 0.7242470829514669 0  -0.6715589548470184 0.740951125354959 0  -0.6531728429537765 0.7572088465064847 0  -0.6343932841636454 0.7730104533627371 0  -0.6152315905806267 0.7883464276266063 0  -0.5956993044924334 0.8032075314806449 0  -0.5758081914178453 0.8175848131515837 0  -0.555570233019602 0.8314696123025455 0  -0.534997619887097 0.8448535652497072 0  -0.5141027441932217 0.8577286100002721 0  -0.492898192229784 0.8700869911087115 0  -0.4713967368259977 0.881921264348355 0  -0.4496113296546067 0.8932243011955152 0  -0.4275550934302819 0.9039892931234434 0  -0.4052413140049897 0.9142097557035307 0  -0.3826834323650897 0.9238795325112867 0  -0.3598950365349882 0.9329927988347388 0  -0.3368898533922199 0.9415440651830208 0  -0.3136817403988914 0.9495281805930367 0  -0.2902846772544622 0.9569403357322089 0  -0.2667127574748983 0.9637760657954398 0  -0.2429801799032639 0.970031253194544 0  -0.2191012401568697 0.9757021300385286 0  -0.1950903220161282 0.9807852804032304 0  -0.1709618887603012 0.9852776423889412 0  -0.1467304744553616 0.989176509964781 0  -0.1224106751992162 0.99247953459871 0  -0.09801714032956065 0.9951847266721969 0  -0.07356456359966733 0.9972904566786902 0  -0.04906767432741801 0.9987954562051724 0  -0.02454122852291214 0.9996988186962042 0  6.123233995736766e-17 1 0  0.02454122852291226 0.9996988186962042 0  0.04906767432741813 0.9987954562051724 0  0.07356456359966745 0.9972904566786902 0  0.09801714032956077 0.9951847266721968 0  0.1224106751992163 0.99247953459871 0  0.1467304744553617 0.989176509964781 0  0.1709618887603014 0.9852776423889412 0  0.1950903220161283 0.9807852804032304 0  0.2191012401568698 0.9757021300385286 0  0.242980179903264 0.970031253194544 0  0.2667127574748984 0.9637760657954398 0  0.2902846772544623 0.9569403357322089 0  0.3136817403988916 0.9495281805930367 0  0.3368898533922201 0.9415440651830208 0  0.3598950365349883 0.9329927988347388 0  0.3826834323650898 0.9238795325112867 0  0.4052413140049899 0.9142097557035307 0  0.4275550934302822 0.9039892931234433 0  0.4496113296546066 0.8932243011955153 0  0.4713967368259978 0.8819212643483549 0  0.4928981922297841 0.8700869911087113 0  0.5141027441932217 0.8577286100002721 0  0.5349976198870973 0.844853565249707 0  0.5555702330196023 0.8314696123025452 0  0.5758081914178453 0.8175848131515837 0  0.5956993044924335 0.8032075314806448 0  0.6152315905806268 0.7883464276266062 0  0.6343932841636455 0.773010453362737 0  0.6531728429537768 0.7572088465064845 0  0.6715589548470183 0.7409511253549591 0  0.6895405447370669 0.7242470829514669 0  0.7071067811865476 0.7071067811865475 0  0.724247082951467 0.6895405447370668 0  0.7409511253549591 0.6715589548470183 0  0.7572088465064846 0.6531728429537768 0  0.773010453362737 0.6343932841636455 0  0.7883464276266063 0.6152315905806268 0  0.8032075314806449 0.5956993044924334 0  0.8175848131515837 0.5758081914178453 0  0.8314696123025452 0.5555702330196022 0  0.8448535652497071 0.5349976198870972 0  0.8577286100002721 0.5141027441932217 0  0.8700869911087115 0.492898192229784 0  0.881921264348355 0.4713967368259976 0  0.8932243011955153 0.4496113296546065 0  0.9039892931234433 0.4275550934302821 0  0.9142097557035307 0.4052413140049899 0  0.9238795325112867 0.3826834323650898 0  0.932992798834739 0.3598950365349881 0  0.9415440651830208 0.3368898533922201 0  0.9495281805930367 0.3136817403988915 0  0.9569403357322088 0.2902846772544623 0  0.9637760657954398 0.2667127574748984 0  0.970031253194544 0.2429801799032639 0  0.9757021300385286 0.2191012401568698 0  0.9807852804032304 0.1950903220161282 0  0.9852776423889412 0.1709618887603012 0  0.989176509964781 0.1467304744553617 0  0.99247953459871 0.1224106751992162 0  0.9951847266721969 0.0980171403295606 0  0.9972904566786902 0.07356456359966743 0  0.9987954562051724 0.04906767432741801 0  0.9996988186962042 0.02454122852291229 0  1 0 0  20 0 0  20 2.5 0  0 2.5 0  -10 2.5 0  10 2.5 0  -10.5 0 0  -5 2.5 0  10.5 0 0  5 2.5 0  -5.75 0 0  5.75 0 0  -15.25 0 0  -15 2.5 0  15.25 0 0  15 2.5 0  -17.625 0 0  -17.5 2.5 0  17.5 2.5 0  17.625 0 0  12.5 2.5 0  12.875 0 0  -12.5 2.5 0  -12.875 0 0  -2.5 2.5 0  2.5 2.5 0  -8.125 0 0  -7.5 2.5 0  8.125 0 0  7.5 2.5 0  -3.375 0 0  3.375 0 0  -18.75 2.5 0  20 1.25 0  16.4375 1.19375 0  -16.25 2.5 0  13.75 2.5 0  -14.0625 0 0  -11.6875 0 0  11.6875 0 0  8.75 2.5 0  -8.75 2.5 0  6.9375 0 0  6.25 2.5 0  -6.25 2.5 0  -9.3125 0 0  -6.9375 0 0  9.3125 0 0  11.25 2.5 0  -11.25 2.5 0  3.75 2.5 0  4.5625 0 0  -4.5625 0 0  -3.75 2.5 0  -13.75 2.5 0  14.0625 0 0  -16.4375 0 0  -20 1.25 0  -18.8125 0 0  18.75 2.5 0  -18.21875 1.2359375 0  18.125 1.278125 0  -15.84375 1.2125 0  -14.375 1.30859375 0  14.65625 1.203125 0  2.1875 0 0  -2.1875 0 0  13.125 1.315625 0  3.125 1.315625 0  -3.125 1.315625 0  -12.28125 1.1890625 0  -5.15625 1.184375 0  11.09375 1.184375 0  5.625 1.325 0  -10.97262068800044 1.220713793599868 0  9.375 1.32734375 0  -6.875 1.32734375 0  -9.67626828410207 1.24449497187193 0  8.061334925608099 1.312208731402025 0  -8.188665074391901 1.312208731402025 0  -1.25 2.5 0  1.25 2.5 0  4.37465139623265 1.41327350462657 0  16.25 2.5 0  6.84375467392576 1.430449641528851 0  -1.846573640185365 1.334702047669377 0  1.846573640185365 1.334702047669377 0  -17.02955351149946 1.396129584721571 0  16.4375 0 0  18.8125 0 0  -13.31314667860176 1.511193493282891 0  -4.122005747945582 0.961844908681634 0  12.12799425205442 0.961844908681634 0  15.54930641305724 1.660405980876393 0  19.0578783583929 0.9559530595267438 0  8.71875 0.6864560603786576 0  -7.53125 0.6864560603786576 0  -0.6257799091428727 1.819008129832856 0  0.6257799091428734 1.819008129832855 0  6.291331569065717 0.7194652423646902 0  -19.11204717950418 0.9044926794710327 0  -4.488713231834613 1.772186102355655 0  11.76128676816539 1.772186102355655 0  -19.28185607205105 1.781856072051052 0  19.30868080343342 1.808680803433421 0  9.90625 0.6371857066656857 0  -6.34375 0.6371857066656857 0  3.796921710049233 0.7617406159238448 0  7.392020585015773 0.7480839107774819 0  -8.910372062800235 0.7929553447587234 0  10.2506781820361 1.451853913138859 0  -5.999321817963904 1.451853913138859 0  4.957643119381741 0.7716423099297361 0  17.29984375 0.8640625 0  15.41193625859067 0.8279888354083842 0  -13.72251704931534 0.7728002662082776 0  16.875 2.5 0  17.12178336313261 1.690954734835967 0  -11.64001625260176 1.74572103154608 0  2.477726735235857 0.7850262278604345 0  13.46875 0 0  13.765625 0.7802887470308788 0  -2.78125 0 0  -2.477726735235857 0.7850262278604346 0  -10.33383379274331 1.744431431923121 0  13.91957519050334 1.653419259628842 0  -15.08147780274903 0.8341506893754731 0  -15.14066649024666 1.671962869821843 0  -8.950686484882164 1.678622661163363 0  -17.55392917606836 0.794731598412167 0  -16.80247533599675 0.6688259240674158 0  -12.94289066923278 0.7766744225472476 0  -9.90625 0 0  -10.31601468672093 0.7730817089126454 0  -18.21875 0 0  -12.28125 0 0  -17.68515668569534 1.768907656575843 0  18.21875 0 0  10.85059123027421 1.880344717307101 0  -5.399408769725794 1.880344717307101 0  -3.738137326223278 1.749164834446819 0  -3.125 2.5 0  12.46235897590077 1.601301060091387 0  -11.09375 0 0  -11.61661448001209 0.7781698802173554 0  -15.625 2.5 0  -1.764022608759088 0.6027229563180789 0  1.59375 0 0  -8.125 2.5 0  8.125 2.5 0  8.713468311289519 1.727645658498745 0  9.375 2.5 0  -7.536531688710481 1.727645658498745 0  -6.875 2.5 0  14.375 2.5 0  17.78381794101733 1.874391370085592 0  18.59891476281433 1.80649740393129 0  -18.58835555265984 1.824268641341969 0  1.806126122135773 0.6510673837470153 0  -16.875 2.5 0  -16.36681393636619 1.755298393865037 0  -16.13072438662071 0.6014017614895231 0  -13.92460230791385 1.83195710210235 0  -14.40198779087891 0.6105385965811564 0  20 0.625 0  19.40625 0 0  14.6875 1.888836596385542 0  14.65625 0 0  12.78248197181444 0.6991460920542635 0  -3.467518028185561 0.6991460920542635 0  13.125 2.5 0  2.491957142932539 1.738660596534321 0  3.125 2.5 0  1.875 2.5 0  3.718973573227002 1.75927763286174 0  -2.491957142932539 1.738660596534321 0  -1.875 2.5 0  -9.375 2.5 0  6.2001972846108 1.772767401802766 0  5.625 2.5 0  5.027483518098582 1.760895488350309 0  5.625981449127788 0.6566963631252629 0  -12.30101114679273 1.859484693920165 0  9.742489932362783 1.884363450023167 0  -6.507510067637216 1.884363450023166 0  1.13492303295015 1.283502262067074
[...]
<PointData  Scalars="f_2168790"> 
<DataArray  type="Float64"  Name="f_2168790"  format="ascii">1.0220124553946328e+00  1.0191191909844792e+00  1.0375126070591745e+00  1.0472428605274318e+00  1.0701376813339640e+00  1.1687279609063481e+00  1.2378498675375178e+00  1.2990847715548031e+00  1.4255184200931348e+00  1.5672549569085936e+00  1.6709825360325461e+00  1.9298170405909871e+00  2.1622716718247954e+00  2.3782896279258199e+00  2.5958535679357104e+00  2.8855008322714983e+00  3.2143832265026968e+00  3.5616748769193647e+00  3.9283067214042546e+00  4.2721315394315988e+00  4.7273072379175280e+00  5.1813491124180784e+00  5.5844321876862946e+00  6.1555285762753584e+00  6.6425642926196771e+00  7.1378874853160923e+00  7.6464886995037862e+00  8.1403928522695761e+00  8.6180735513690827e+00  9.2875591283558876e+00  9.6917519003396535e+00  1.0292712373794554e+01  1.0667342257141197e+01  1.1126954571817834e+01  1.1704421232975726e+01  1.2132220032218257e+01  1.2478656546555046e+01  1.3091266846238042e+01  1.3312434459045928e+01  1.3637776494904706e+01  1.3916772979071974e+01  1.4227638829293227e+01  1.4388708422170149e+01  1.4524760533002716e+01  1.4632506063469803e+01  1.4818891266813743e+01  1.4592689771062224e+01  1.4836503302536917e+01  1.5019648419243341e+01  1.4951985919643166e+01  1.4783145372721894e+01  1.4706632513185328e+01  1.4629323553686396e+01  1.4415188012775898e+01  1.4215704923214474e+01  1.3903047842610647e+01  1.3717671562706542e+01  1.3490619567247553e+01  1.3018707579009126e+01  1.2784498591379421e+01  1.2468849403350365e+01  1.1960650256119775e+01  1.1622519566702307e+01  1.1234975046562386e+01  1.0844409365610995e+01  1.0389514713638258e+01  9.9379253775683267e+00  9.4419367409774342e+00  9.0521721765075700e+00  8.6248882873403705e+00  8.1055712466464058e+00  7.6782906418719916e+00  7.1892764477180320e+00  6.7393046345916359e+00  6.2577032584165764e+00  5.7992477578208970e+00  5.3647928274803149e+00  4.8817671548305617e+00  4.4587481704900833e+00  4.0606507758834942e+00  3.6678069514578717e+00  3.3441610678343388e+00  2.9078416119526187e+00  2.5836786148666633e+00  2.2880970074518152e+00  2.0026721468727788e+00  1.7061617597679550e+00  1.4678873944758135e+00  1.2312218565259747e+00  9.5239589289697735e-01  7.6247611873604892e-01  6.1183910574973488e-01  4.8790603600010995e-01  3.2795936833010220e-01  1.9364103539412672e-01  1.6822151527163590e-01  1.3260933585438281e-01  3.6074364430578681e-02  4.6625002681201851e-02  7.0631847357790198e-02  3.4032055818504665e-03  3.8206609419362630e-02  1.5244628179494063e-01  2.2270266340953146e-01  3.0953395690860480e-01  4.0647763178745799e-01  3.9738138503700177e-01  5.1071880955970839e-01  5.4450581234690609e-01  7.0001711336243244e-01  7.7708716267787381e-01  7.6913807947602864e-01  8.2939620952788662e-01  9.0241494805614830e-01  8.9548212583510867e-01  9.2265867321593920e-01  9.2985477270294625e-01  9.4863508199223390e-01  9.2854443209045112e-01  9.3153645195057766e-01  9.0273127589574564e-01  9.1705149814114129e-01  9.2727493706657727e-01  9.4051226108575314e-01  9.5878487599256557e-01  9.6044883722873453e-01  9.6614868628723538e-01  9.7231840825267424e-01  9.8373294707359749e-01  9.8808227637752877e-01  9.8230959629302594e-01  9.9999996302175198e-01  9.9999999038464449e-01  1.0242527012808189e+01  9.9999786531653834e-01  9.9998939207912207e-01  1.0000093512026129e+00  9.9658991540929143e-01  9.9997555449576359e-01  1.0066374368990787e+00  1.0115220116938888e+00  9.7688781684084569e-01  9.9935778712795253e-01  1.0001210016089881e+00  1.0000008473881767e+00  9.9999973534829945e-01  9.9801330279607170e-01  1.0009759968716978e+00  9.9999999454422417e-01  9.9999999253653638e-01  9.9999578365695874e-01  1.0000068208705821e+00  1.0000054129802451e+00  9.9993017621982261e-01  9.2352791514411703e-01  1.4579717998498536e+00  1.0005009930126108e+00  9.9997406217968909e-01  9.9843239155836128e-01  1.0002204933049010e+00  1.2630710795814211e+00  7.8812543014067749e-01  1.0023365030123910e+00  9.9999897180707298e-01  9.9999875007611916e-01  1.0003994949376160e+00  9.9999882980268373e-01  9.9978532213135718e-01  9.9998422037539925e-01  1.0000107013550259e+00  9.9997370044274803e-01  9.9998895685638023e-01  9.9315056023567250e-01  1.0017416923229705e+00  9.9957727799302565e-01  1.0000898415225410e+00  1.0026689073455333e+00  9.9973968244994560e-01  9.9999053598985443e-01  1.0000015680205296e+00  1.0427223859405579e+00  9.2187330051873451e-01  1.0572426645853077e+00  9.7710171856768058e-01  1.0000034086440515e+00  1.0000028299628561e+00  9.9861769573578174e-01  1.0265489496806672e+00  1.0012986902879775e+00  9.9999996349778930e-01  1.0014814905297114e+00  9.9999886556311135e-01  1.0004969058029369e+00  1.0002584637909560e+00  9.9999752485280868e-01  5.6363481465783971e-01  2.3037650094355735e+00  9.9999252675272665e-01  1.5234437870478930e+00  1.0360084148997293e+00  1.0000250844763972e+00  9.9838645740586618e-01  9.9999136414394840e-01  1.0253020401817847e+00  1.0000061292631131e+00  1.0002507236589890e+00  9.9979422720397348e-01  9.9999610822993423e-01  1.0013499666358063e+00  9.9994169630829921e-01  3.0439369236361173e+00  8.3557317987924442e+00  1.1210206939661427e+00  9.9999994922877777e-01  1.0089793843709634e+00  1.7424130628400569e+00  4.4719637126968461e+00  1.0018657450143833e+00  1.0000002190780033e+00  9.9999990491755464e-01  1.0001382381024795e+00  1.0162206701688050e+00  9.9999417102184784e-01  9.9999785068352842e-01  9.9999896490120299e-01  9.9952456434903036e-01  1.0003263305535322e+00  4.7298614039371039e+00  1.2122325761822310e+01  9.9384080359236338e-01  1.0109025977418200e+00  9.8567083069796968e-01  9.9997900225059544e-01  1.0076284010242496e+00  9.9999897791977932e-01  9.9989421553175140e-01  1.0019642549559444e+00  9.9491005180812220e-01  9.9790295117029326e-01  1.0000414141785579e+00  1.0000523297843802e+00  9.9918004815155470e-01  9.8739547019614038e-01  9.9999889318805357e-01  9.9999896824247447e-01  9.9993620190506172e-01  9.9999993623243677e-01  9.9999873705077358e-01  1.0000275117817559e+00  1.2769266286422041e+00  1.0000049403446987e+00  9.9999968453978794e-01  1.5945021249472140e+00  1.5826816233454204e+00  1.0000018942673474e+00  9.9999354887225667e-01  9.9978845658833015e-01  1.0009344372565434e+00  9.9997475622392973e-01  9.9881376153776791e-01  9.9873004550379085e-01  9.9997321064852340e-01  1.0000285347349482e+00  1.0000025486565736e+00  9.9862405954667022e-01  9.9996519950719764e-01  1.0050284676726293e+00  9.9999997557432974e-01  9.9999662550534218e-01  9.9531663750602617e-01  9.7628904768860869e-01  9.4818236887702423e-01  9.9998326183175912e-01  9.9999591223677164e-01  9.9999402229395318e-01  1.0001677450506927e+00  2.9283819309370163e+00  5.3843941121931127e-01  9.9995551825805384e-01  1.0000202225260855e+00  1.0010194956367622e+00  9.9998567867007482e-01  9.9981659119382238e-01  9.9990454845557197e-01  9.9999920712946655e-01  9.9999890561337745e-01  9.9999895743703648e-01  1.0061455722209915e+00  1.7043818682891434e+00  1.0004583864545491e+00  1.0023585209431221e+00  9.9906802483168156e-01  1.0002958948503420e+00  9.9976924790429555e-01  9.9999896299951141e-01  9.9999982714511604e-01  9.9999640392633926e-01  1.0000016925132307e+00  1.0000014462693771e+00  1.1095645658057349e+00  9.9999823032509172e-01  2.7673616808367973e+00  1.1073702419067428e+00  3.7054954470413515e+00  1.3272325259058526e+00  1.0532190927189085e+00  1.0888142301577277e+00  9.9999526093637525e-01  1.0220092148362201e+00  1.0026873795208213e+00  1.0735344188016898e+00  9.8542436985327742e-01  1.0000607844620546e+00  1.0001762446923204e+00  9.9911325913476023e-01  8.6768163923779973e+00  3.4921987377006669e+00  9.9999885922791165e-01  1.0183926623364823e+00  9.9996571035038573e-01  1.0042455861712376e+00  9.9999845231620565e-01  9.5073631638007361e-01  1.0000004111849672e+00  9.9999921467457442e-01  1.0001557334094522e+00  9.9862795256754699e-01  1.0049188844727697e+00  1.5867792379995009e+00  8.5990162564849317e+00  1.0000112725799164e+00  1.0000094822128516e+00  1.1371546209071128e+00  9.9999007811449259e-01  1.0000178021263981e+00  9.9999903098353027e-01  1.0010961130412419e+00  1.0000010987472578e+00  1.0016412450217149e+00  1.0041371919718853e+00  1.0315588005471072e+00  1.0000401122746310e+00  1.0003785247991621e+00  1.0131795549136129e+00  1.0131637782072469e+01  9.9999954819641890e-01  9.9999994147376625e-01  1.0000028537951149e+00  9.9558627254600718e-01  9.9999520162652611e-01  9.8831063039815514e-01  9.9676294712583378e+00  7.0146906019851283e+00  9.9999984652627782e-01  1.0269653895131159e+00  9.9999899852876240e-01  9.9999992437852503e-01  9.9999119437636974e-01  9.9922320127872499e-01  1.0015996517574433e+00  9.9999612054013642e-01  9.9999908700067219e-01  1.0252349369236735e+00  1.0000025187779535e+00  9.9999992733968157e-01  1.0005747160287612e+00  9.9992092137139299e-01  1.0021157416043582e+00  9.9996875536556018e-01  1.0010451068430157e+00  9.9973083887413983e-01  3.8696777177935355e+00  9.9960458653654205e-01  9.9987472560020452e-01  9.5576967593218864e-01  1.0001852237838957e+00  9.9662960522236232e-01  8.6728661418431041e-01  1.0051272981005610e+00  9.9989996406350323e-01  9.8718674565374287e-01  1.0010424015075576e+00  9.9926552977747540e-01  9.9807109683711093e-01  9.9900373748551830e-01  6.9437987276060220e-01  1.0000000731541447e+00  1.6327416169690987e+00  9.9998750825934135e-01  9.4576160917192265e-01  1.0406280592767765e+00  1.0004798583977454e+00  9.9999900378502016e-01  9.4629086374769744e-01  9.9918623082176772e-01  1.0035018512889613e+00  9.9352297722372673e-01  9.9999868613471721e-01  1.1271343162798428e+00  9.9999884854370602e-01  1.0000587295351731e+00  1.0001617599812627e+00  9.9999949471085015e-01  9.9806113513369099e-01  1.0000333956527212e+00  1.0001063838694586e+00  1.0085201451814829e+00  1.0045071374826890e+00  1.0008384773739900e+00  9.9998808956218777e-01  1.0173841160484567e+00  1.0107596080446679e+00  1.0001673728531721e+00  9.9992390583924384e-01  1.0006260490663259e+00  9.9958872839347823e-01  1.0004736698353240e+00  9.9998351445595401e-01  9.9850761150312517e-01  1.0024903796761842e+00  9.9999908993636466e-01  1.0511617065722076e+00  1.0000075530610151e+00  9.9999809276886908e-01  9.9999794387747409e-01  1.1826207269746589e+00  1.3158323999575181e+00  1.0425699882508106e+00  9.9999887258047770e-01  9.9999883847543503e-01  9.9999928976234609e-01  9.8598312908407637e-01  1.0012901979650102e+00  1.1845262609311309e+00  4.3312527024378342e+00  1.0000028102248328e+00  9.9992730239476024e-01  1.0000172730641610e+00  9.9999878134026698e-01  9.9999082828730668e-01  9.9999494962994195e-01  9.9999555162054965e-01  1.0009051797760764e+00  9.9999653965969415e-01  3.0977852880304884e+00  9.9999251031424319e-01  1.9616965963556277e+00  1.3448287558548204e+00  1.0083708130313598e+00  1.0337879766234508e+00  1.0326380420450749e+00  9.9801163933262638e-01  9.9999895683135109e-01  3.9415061538732901e+00  3.0357440470564367e+00  1.0781639297909523e+01  8.5879998561489579e+00  1.1069598619977960e+01  9.9989329987443543e-01  9.9950116558648949e-01  9.9999964126742913e-01  1.1537373159676034e+00  9.9999863688442292e-01  9.9998734319595295e-01  9.9999883695507175e-01  9.9999910801892633e-01  1.0000052503280741e+00  9.9998635144672521e-01  1.0135933688678691e+00  9.9995964107802826e-01  1.0000370770016209e+00  9.9431903041088554e-01  9.9998007765667218e-01  9.9999547380987697e-01  9.9868310650515912e-01  1.0004621880225417e+00  1.0157539533794937e+00  1.0099995211744961e+00  9.9996669143652694e-01  1.0064450975053920e+00  9.8012573995696639e-01  1.0043177616171939e+00  9.9998764210182645e-01  1.0048635242857338e+00  9.9999906365948577e-01  1.0290868100201158e+00  9.9998596265312667e-01  9.9434581826577495e-01  9.9998612004361742e-01  9.9744326716454945e-01  1.0000158785632054e+00  1.0000795324665270e+00  1.0000013508035057e+00  9.9999928946092587e-01  9.9999880628203219e-01  9.9997948086371446e-01  8.0524940021993245e+00  1.1199672727096825e+01  9.9999896139011957e-01  1.0000007022466211e+00  9.9999594731095875e-01  1.0000943926278190e+00  9.9947510033105169e-01  1.0006377060171585e+00  1.0001562709490026e+00  1.0216538884965796e+00  9.9877703745766100e-01  9.9999915373478665e-01  1.0001230338244016e+00  1.0024362286653588e+00  1.0001447123880458e+00  1.9612750689464624e+00  1.2613867315778766e+00  9.9399909216597027e-01  1.0014510958110903e+00  1.0000140626785425e+00  1.0000002026948771e+00  9.9992657454533596e-01  1.0059823874220715e+00  1.1852742697486707e+00  8.1340127274766549e-01  1.0289383506482488e+00  1.0315750342736674e+00  9.3025337359104732e-01  9.9999334828856445e-01  3.9669289929968272e+00  1.0000303724179489e+00  1.0000078901586280e+00  1.1375422505149393e+00  1.1827266692464742e+00  9.9999886873148736e-01  1.0023202712999564e+00  1.0000018159116952e+00  9.9999524505273762e-01  9.9996168519999640e-01  1.0000254592923776e+00  1.0004548435402918e+00  1.0000146139255830e+00  1.0000145298750946e+00  1.0457602795378940e+00  9.9996027475178273e-01  9.9998323099722475e-01  9.9998803575090911e-01  9.3719146291580611e+00  9.9975617698073149e-01  1.0025086412931150e+00  9.9999422857814724e-01  9.9979705643131700e-01  1.0000278396138687e+00  1.0000001376997878e+00  1.0017943861874443e+00  9.9689112927962298e-01  1.7717976550747490e+00  6.2675516422381727e-01  1.0009305768537970e+00  9.9934374115596192e-01  9.9999996611825803e-01  9.9999907147350764e-01  1.0008672127126133e+00  1.0000050275056607e+00  1.2085065609936017e+00  2.4531369522635402e+00  1.0444009832069783e+00  1.0000034865065945e+00  5.2498239655711130e+00  9.8082968284420113e-01  2.0568126895086629e+00  1.0000006176355301e+00  9.9999680861126461e-01  1.0004029516702955e+00  2.1191664245647148e+00  1.0124775863446407e+00  1.0004844354551012e+00  9.9983250580008864e-01  1.0007678350316060e+00  1.0046891482668325e+00  9.9999717791725828e-01  9.9999892390356526e-01  1.0005873382630748e+00  9.9998728509825485e-01  1.0000056557910275e+00  9.9999901511025135e-01  1.0006721548474111e+00  3.4589722010506102e-01  1.0000023715846016e+00  9.5921144680322756e-01  1.0000078522078426e+00  1.3097405254452608e+00  9.9988813780188268e-01  1.0000003517133713e+00  1.0003368715839254e+00  1.0000076151597173e+00  1.0427398580690364e+00  1.0414630297124357e+00  1.0006669713862502e+00  1.0031140400320053e+00  1.0003582739302952e+00  1.0001802418673560e+00  9.9999831557453600e-01  1.0000402657256613e+00  1.0000011102624300e+00  1.2991561073839282e+00  1.0000290560711464e+00  1.1950577868366539e+00  9.9977124028829178e-01  1.0010773120744911e+00  5.6771771805697471e+00  8.4625239835592616e+00  1.0715833907258876e+00  1.1295874405440014e+00  3.1808162909213906e+00  1.0084442186985201e+00  9.9999916573766223e-01  9.9999886942021732e-01  1.0136456056883185e+00  1.0000026134036353e+00  9.9993180886343580e-01  1.0000089010724191e+00  9.9999893699844888e-01  1.0003602724093110e+00  9.9999883983752813e-01  9.9999859234712241e-01  1.0173001434606961e+00  9.9969290868201277e-01  1.0016488841904658e+00  1.0041430689830435e+00  9.9779518011106894e-01  2.8167335740462391e+00  2.0038393153425891e+00  1.0015481397763881e+00  9.9843054495643480e-01  9.9837241272776189e-01  9.9873874644009897e-01  1.0001088363999724e+00  9.9970890613976560e-01  1.0001121611620338e+00  1.8974787021525688e+00  1.0801933381375561e+00  9.9089678644619006e-01  9.8738553617946390e-01  1.0000592731040061e+00  6.7084541384869567e-01  1.0000029718275596e+00  1.0036690769855463e+00  1.0012807183606560e+00  1.0023278677082701e+00  1.1354121121424988e+01  9.9999840882113522e-01  9.9973987347707427e-01  1.0004557873453408e+00  1.0737291912819240e+00  8.8684252543367004e-01  9.9999904797579897e-01  1.0176089516809836e+00  9.9999191430963408e-01  1.0053973580412048e+00  1.3523753954629909e+00  1.0533342699282915e+00  1.0024949553520086e+00  9.9999883303673220e-01  1.0000194711827342e+00  9.9886476510853284e-01  9.9999312137706986e-01  9.9776998736561906e-01  9.9999197151479857e-01  9.9998126642544505e-01  9.9215523661690252e-01  1.0047874528330369e+00  1.0000056184011403e+00  9.9999891138329511e-01  2.9665396618342408e+00  1.0059778120956329e+00  1.0031336596305040e+00  1.0234262931137939e+00  9.8085285406662159e-01  5.5150112473349768e+00  5.8769703844346770e+00  7.1126462685347114e-01  5.1657682671117611e+00  9.9998786756543978e-01  1.0000012130570508e+00  1.0000005984372347e+00  9.9997646787521677e-01  1.0116013974606404e+00  9.9964061570631146e-01  9.9972223931220949e-01  9.9998381406910719e-01  1.0001751469129254e+00  1.0000555128963993e+00  1.0000004698341558e+00  9.9930754741236505e-01  9.9999996250222278e-01  9.9999924684185737e-01  8.9778497584182881e-01  1.0000003709027285e+00  9.9999894301445647e-01  1.0071206937333135e+00  9.9808091317311654e-01  9.9999887050040359e-01  9.9999909335390214e-01  1.2470506896034075e+00  1.1179024399048483e+00  9.9999518372247642e-01  9.9959270008674250e-01  1.0052277092887596e+00  1.0000100082551855e+00  9.9970278893544240e-01  9.9970496523009145e-01  9.9998846680711073e-01  1.0038139232218430e+00  9.9999591297842616e-01  9.9999928083863776e-01  1.0040478241065351e+00  1.0087018338497149e+00  1.0000569519093023e+00  9.9992722144485813e-01  1.0025109499166414e+00  1.0003235215276627e+00  1.0001935643221544e+00  1.0002269099414094e+00  9.9998087011835080e-01  9.9999875733201105e-01  9.9999679558798737e-01  9.9999725881193491e-01  9.9999765389995543e-01  2.9348415477213239e+00  5.8955480522622117e-01  1.0000072291341342e+00  1.0000134250380672e+00  1.0000539590696056e+00  9.9999910129603753e-01  9.9999989566870318e-01  9.9999819381671773e-01  1.1477613353601908e+01  9.2439400283325313e+00  5.3946340372922990e+00  1.0011695282451465e+00  9.9999170517839064e-01  1.0054217177851232e+00  9.9999681814569230e-01  1.0239872679296620e+00  1.0000085243818244e+00  1.0397817689269968e+00  1.0047621553699804e+00  9.9993479968749888e-01  9.9999816155427601e-01  9.9930899844932397e-01  9.9886709561952547e-01  9.3001299294072548e-01  7.5095728085757429e-01  9.9999853323696919e-01  9.9999898701514867e-01  9.9999983892874755e-01  1.1132271396652256e+00  9.7079329609864862e-01  9.9999734812615093e-01  1.0001037549428058e+00  9.9895302930996155e-01  9.9937400402022170e-01  1.0000598862063041e+00  9.9958338011923320e-01  1.0002807895947654e+00  9.9999942583427215e-01  1.0000003061494160e+00  9.9999973025202127e-01  9.9999253273890099e-01  9.9885386186109781e-01  9.9998663810869748e-01  9.9999994555004723e-01  9.9999923248847489e-01  9.8690185568409827e-01  9.9960074870517124e-01  4.3198959318951511e+00  9.9895281564884564e-01  9.9999636318987317e-01  1.0000611400981367e+00  1.0002713890648165e+00  9.9776720741735936e-01  9.9999759642050179e-01  1.0110335955196299e+00  1.0415531461257976e+00  1.1978963024898110e+00  9.3391427262990039e+00  2.3519374570012324e+00  6.4280284075644101e+00  1.0000000364085933e+00  1.0000020705640156e+00  9.9999914453221894e-01  1.0000337949518041e+00  1.0000456351638269e+00  1.0000361966750690e+00  1.2089963680185565e+00  9.9999600072119910e-01  1.0128116854538192e+00  9.9999873605845435e-01  9.6831843596375811e-01  1.0001128475530181e+00  1.0134646185933083e+00  1.0287431892011505e+00  1.0001626705294466e+00  2.7639588261967836e+00  9.9999881103819821e-01  1.0522722162717150e+01  1.4561059899223157e+00  1.0000070120276365e+00  9.9986912050546173e-01  1.0040866121436540e+00  1.0000030680565901e+00  1.0232880197339638e+00  9.9998634030654432e-01  1.4262801841240749e+00  1.0030591652291942e+00  9.9998738328495806e-01  9.9999833036706542e-01  1.0000006081742425e+00  9.9999876923591524e-01  1.1885832564833857e+01  1.0109445107666138e+01  7.6086522096876621e+00  1.0374393166845264e+00  1.0000000694355440e+00  1.0000038555904167e+00  9.9999893737885914e-01  3.4792082747309880e+00  9.9999930238907175e-01  3.9475671609295264e+00  9.9999931549980969e-01  9.9999895491552626e-01  9.9999875569321772e-01  1.0000010