<?xml version="1.0"?>
<VTKFile type="UnstructuredGrid"  version="0.1"  >
<UnstructuredGrid>
<Piece  NumberOfPoints="2954" NumberOfCells="5142">
<Points>
<DataArray  type="Float64"  NumberOfComponents="3"  format="ascii">-20 2.5 0  -20 0 0  -1 0 0  -0.9996988186962042 0.02454122852291233 0  -0.9987954562051724 0.04906767432741797 0  -0.9972904566786902 0.07356456359966773 0  -0.9951847266721968 0.09801714032956083 0  -0.99247953459871 0.1224106751992163 0  -0.989176509964781 0.1467304744553618 0  -0.9852776423889412 0.1709618887603012 0  -0.9807852804032304 0.1950903220161286 0  -0.9757021300385285 0.21910124015687 0  -0.970031253194544 0.2429801799032641 0  -0.9637760657954398 0.2667127574748985 0  -0.9569403357322088 0.2902846772544624 0  -0.9495281805930367 0.3136817403988914 0  -0.9415440651830207 0.3368898533922203 0  -0.9329927988347388 0.3598950365349883 0  -0.9238795325112867 0.3826834323650899 0  -0.9142097557035307 0.4052413140049899 0  -0.9039892931234433 0.427555093430282 0  -0.8932243011955152 0.4496113296546069 0  -0.8819212643483549 0.4713967368259979 0  -0.8700869911087113 0.4928981922297841 0  -0.857728610000272 0.5141027441932218 0  -0.8448535652497071 0.5349976198870972 0  -0.8314696123025453 0.5555702330196022 0  -0.8175848131515836 0.5758081914178454 0  -0.8032075314806448 0.5956993044924335 0  -0.7883464276266062 0.6152315905806269 0  -0.773010453362737 0.6343932841636455 0  -0.7572088465064846 0.6531728429537766 0  -0.7409511253549589 0.6715589548470186 0  -0.7242470829514668 0.6895405447370671 0  -0.7071067811865475 0.7071067811865476 0  -0.6895405447370669 0.7242470829514669 0  -0.6715589548470184 0.740951125354959 0  -0.6531728429537765 0.7572088465064847 0  -0.6343932841636454 0.7730104533627371 0  -0.6152315905806267 0.7883464276266063 0  -0.5956993044924334 0.8032075314806449 0  -0.5758081914178453 0.8175848131515837 0  -0.555570233019602 0.8314696123025455 0  -0.534997619887097 0.8448535652497072 0  -0.5141027441932217 0.8577286100002721 0  -0.492898192229784 0.8700869911087115 0  -0.4713967368259977 0.881921264348355 0  -0.4496113296546067 0.8932243011955152 0  -0.4275550934302819 0.9039892931234434 0  -0.4052413140049897 0.9142097557035307 0  -0.3826834323650897 0.9238795325112867 0  -0.3598950365349882 0.9329927988347388 0  -0.3368898533922199 0.9415440651830208 0  -0.3136817403988914 0.9495281805930367 0  -0.2902846772544622 0.9569403357322089 0  -0.2667127574748983 0.9637760657954398 0  -0.2429801799032639 0.970031253194544 0  -0.2191012401568697 0.9757021300385286 0  -0.1950903220161282 0.9807852804032304 0  -0.1709618887603012 0.9852776423889412 0  -0.1467304744553616 0.989176509964781 0  -0.1224106751992162 0.99247953459871 0  -0.09801714032956065 0.9951847266721969 0  -0.07356456359966733 0.9972904566786902 0  -0.04906767432741801 0.9987954562051724 0  -0.02454122852291214 0.9996988186962042 0  6.123233995736766e-17 1 0  0.02454122852291226 0.9996988186962042 0  0.04906767432741813 0.9987954562051724 0  0.07356456359966745 0.9972904566786902 0  0.09801714032956077 0.9951847266721968 0  0.1224106751992163 0.99247953459871 0  0.1467304744553617 0.989176509964781 0  0.1709618887603014 0.9852776423889412 0  0.1950903220161283 0.9807852804032304 0  0.2191012401568698 0.9757021300385286 0  0.242980179903264 0.970031253194544 0  0.2667127574748984 0.9637760657954398 0  0.2902846772544623 0.9569403357322089 0  0.3136817403988916 0.9495281805930367 0  0.3368898533922201 0.9415440651830208 0  0.3598950365349883 0.9329927988347388 0  0.3826834323650898 0.9238795325112867 0  0.4052413140049899 0.9142097557035307 0  0.4275550934302822 0.9039892931234433 0  0.4496113296546066 0.8932243011955153 0  0.4713967368259978 0.8819212643483549 0  0.4928981922297841 0.8700869911087113 0  0.5141027441932217 0.8577286100002721 0  0.5349976198870973 0.844853565249707 0  0.5555702330196023 0.8314696123025452 0  0.5758081914178453 0.8175848131515837 0  0.5956993044924335 0.8032075314806448 0  0.6152315905806268 0.7883464276266062 0  0.6343932841636455 0.773010453362737 0  0.6531728429537768 0.7572088465064845 0  0.6715589548470183 0.7409511253549591 0  0.6895405447370669 0.7242470829514669 0  0.7071067811865476 0.7071067811865475 0  0.724247082951467 0.6895405447370668 0  0.7409511253549591 0.6715589548470183 0  0.7572088465064846 0.6531728429537768 0  0.773010453362737 0.6343932841636455 0  0.7883464276266063 0.6152315905806268 0  0.8032075314806449 0.5956993044924334 0  0.8175848131515837 0.5758081914178453 0  0.8314696123025452 0.5555702330196022 0  0.8448535652497071 0.5349976198870972 0  0.8577286100002721 0.5141027441932217 0  0.8700869911087115 0.492898192229784 0  0.881921264348355 0.4713967368259976 0  0.8932243011955153 0.4496113296546065 0  0.9039892931234433 0.4275550934302821 0  0.9142097557035307 0.4052413140049899 0  0.9238795325112867 0.3826834323650898 0  0.932992798834739 0.3598950365349881 0  0.9415440651830208 0.3368898533922201 0  0.9495281805930367 0.3136817403988915 0  0.9569403357322088 0.2902846772544623 0  0.9637760657954398 0.2667127574748984 0  0.970031253194544 0.2429801799032639 0  0.9757021300385286 0.2191012401568698 0  0.9807852804032304 0.1950903220161282 0  0.9852776423889412 0.1709618887603012 0  0.989176509964781 0.1467304744553617 0  0.99247953459871 0.1224106751992162 0  0.9951847266721969 0.0980171403295606 0  0.9972904566786902 0.07356456359966743 0  0.9987954562051724 0.04906767432741801 0  0.9996988186962042 0.02454122852291229 0  1 0 0  20 0 0  20 2.5 0  0 2.5 0  -10 2.5 0  10 2.5 0  -10.5 0 0  -5 2.5 0  10.5 0 0  5 2.5 0  -5.75 0 0  5.75 0 0  -15.25 0 0  -15 2.5 0  15.25 0 0  15 2.5 0  -17.625 0 0  -17.5 2.5 0  17.5 2.5 0  17.625 0 0  12.5 2.5 0  12.875 0 0  -12.5 2.5 0  -12.875 0 0  -2.5 2.5 0  2.5 2.5 0  -8.125 0 0  -7.5 2.5 0  8.125 0 0  7.5 2.5 0  -3.375 0 0  3.375 0 0  -18.75 2.5 0  20 1.25 0  16.4375 1.19375 0  -16.25 2.5 0  13.75 2.5 0  -14.0625 0 0  -11.6875 0 0  11.6875 0 0  8.75 2.5 0  -8.75 2.5 0  6.9375 0 0  6.25 2.5 0  -6.25 2.5 0  -9.3125 0 0  -6.9375 0 0  9.3125 0 0  11.25 2.5 0  -11.25 2.5 0  3.75 2.5 0  4.5625 0 0  -4.5625 0 0  -3.75 2.5 0  -13.75 2.5 0  14.0625 0 0  -16.4375 0 0  -20 1.25 0  -18.8125 0 0  18.75 2.5 0  -18.21875 1.2359375 0  18.125 1.278125 0  -15.84375 1.2125 0  -14.375 1.30859375 0  14.65625 1.203125 0  2.1875 0 0  -2.1875 0 0  13.125 1.315625 0  3.125 1.315625 0  -3.125 1.315625 0  -12.28125 1.1890625 0  -5.15625 1.184375 0  11.09375 1.184375 0  5.625 1.325 0  -10.97262068800044 1.220713793599868 0  9.375 1.32734375 0  -6.875 1.32734375 0  -9.67626828410207 1.24449497187193 0  8.061334925608099 1.312208731402025 0  -8.188665074391901 1.312208731402025 0  -1.25 2.5 0  1.25 2.5 0  4.37465139623265 1.41327350462657 0  16.25 2.5 0  6.84375467392576 1.430449641528851 0  -1.846573640185365 1.334702047669377 0  1.846573640185365 1.334702047669377 0  -17.02955351149946 1.396129584721571 0  16.4375 0 0  18.8125 0 0  -13.31314667860176 1.511193493282891 0  -4.122005747945582 0.961844908681634 0  12.12799425205442 0.961844908681634 0  15.54930641305724 1.660405980876393 0  19.0578783583929 0.9559530595267438 0  8.71875 0.6864560603786576 0  -7.53125 0.6864560603786576 0  -0.6257799091428727 1.819008129832856 0  0.6257799091428734 1.819008129832855 0  6.291331569065717 0.7194652423646902 0  -19.11204717950418 0.9044926794710327 0  -4.488713231834613 1.772186102355655 0  11.76128676816539 1.772186102355655 0  -19.28185607205105 1.781856072051052 0  19.30868080343342 1.808680803433421 0  9.90625 0.6371857066656857 0  -6.34375 0.6371857066656857 0  3.796921710049233 0.7617406159238448 0  7.392020585015773 0.7480839107774819 0  -8.910372062800235 0.7929553447587234 0  10.2506781820361 1.451853913138859 0  -5.999321817963904 1.451853913138859 0  4.957643119381741 0.7716423099297361 0  17.29984375 0.8640625 0  15.41193625859067 0.8279888354083842 0  -13.72251704931534 0.7728002662082776 0  16.875 2.5 0  17.12178336313261 1.690954734835967 0  -11.64001625260176 1.74572103154608 0  2.477726735235857 0.7850262278604345 0  13.46875 0 0  13.765625 0.7802887470308788 0  -2.78125 0 0  -2.477726735235857 0.7850262278604346 0  -10.33383379274331 1.744431431923121 0  13.91957519050334 1.653419259628842 0  -15.08147780274903 0.8341506893754731 0  -15.14066649024666 1.671962869821843 0  -8.950686484882164 1.678622661163363 0  -17.55392917606836 0.794731598412167 0  -16.80247533599675 0.6688259240674158 0  -12.94289066923278 0.7766744225472476 0  -9.90625 0 0  -10.31601468672093 0.7730817089126454 0  -18.21875 0 0  -12.28125 0 0  -17.68515668569534 1.768907656575843 0  18.21875 0 0  10.85059123027421 1.880344717307101 0  -5.399408769725794 1.880344717307101 0  -3.738137326223278 1.749164834446819 0  -3.125 2.5 0  12.46235897590077 1.601301060091387 0  -11.09375 0 0  -11.61661448001209 0.7781698802173554 0  -15.625 2.5 0  -1.764022608759088 0.6027229563180789 0  1.59375 0 0  -8.125 2.5 0  8.125 2.5 0  8.713468311289519 1.727645658498745 0  9.375 2.5 0  -7.536531688710481 1.727645658498745 0  -6.875 2.5 0  14.375 2.5 0  17.78381794101733 1.874391370085592 0  18.59891476281433 1.80649740393129 0  -18.58835555265984 1.824268641341969 0  1.806126122135773 0.6510673837470153 0  -16.875 2.5 0  -16.36681393636619 1.755298393865037 0  -16.13072438662071 0.6014017614895231 0  -13.92460230791385 1.83195710210235 0  -14.40198779087891 0.6105385965811564 0  20 0.625 0  19.40625 0 0  14.6875 1.888836596385542 0  14.65625 0 0  12.78248197181444 0.6991460920542635 0  -3.467518028185561 0.6991460920542635 0  13.125 2.5 0  2.491957142932539 1.738660596534321 0  3.125 2.5 0  1.875 2.5 0  3.718973573227002 1.75927763286174 0  -2.491957142932539 1.738660596534321 0  -1.875 2.5 0  -9.375 2.5 0  6.2001972846108 1.772767401802766 0  5.625 2.5 0  5.027483518098582 1.760895488350309 0  5.625981449127788 0.6566963631252629 0  -12.30101114679273 1.859484693920165 0  9.742489932362783 1.884363450023167 0  -6.507510067637216 1.884363450023166 0  1.13492303295015 1.283502262067074
[...]
<PointData  Scalars="f_8810"> 
<DataArray  type="Float64"  Name="f_8810"  format="ascii">-2.2864237070971954e-05  -1.2601666022255541e-07  -1.5234198555222880e-08  -1.0123767678671952e-07  -2.1628140271962501e-07  -2.0889568809027653e-07  -3.3909764251954606e-07  -6.0173456806269010e-07  -6.6621428507454410e-07  -1.0206304799418239e-06  -7.2636614636788945e-07  -8.5812900128132426e-07  -5.9264659299348947e-07  -7.4834440030124707e-07  -1.1706672396610880e-06  -1.7963138463282967e-06  -1.7746096045823201e-06  -1.8285583902768389e-06  -1.6103596512328916e-06  -1.8445506771553780e-06  -2.1048158074870224e-06  -2.0417849996109390e-06  -1.5893056798033719e-06  -1.8527571000346175e-06  -1.7214217613685370e-06  -1.6486472900724423e-06  -1.5154231352632190e-06  -1.1391009517779070e-06  -1.0493030235702055e-06  -9.3062843833365587e-07  -8.5959516236301060e-07  -7.2953437132551775e-07  -4.5864153572903484e-07  -1.6178065194873282e-07  1.2816768208531059e-07  4.0888748787341950e-07  6.3533160689773048e-07  1.0668454784264386e-06  1.3868474608541885e-06  1.6104668094328235e-06  1.7701297445204877e-06  2.3965162720605116e-06  2.7437807228124821e-06  2.8777640669095360e-06  2.9676161849161953e-06  3.4629003511122865e-06  2.4827817640223118e-06  3.7755970812416189e-06  4.9970961037029221e-06  5.4202853192514140e-06  4.9955216033172210e-06  5.3472815130156970e-06  6.4072450636572416e-06  6.6549860518266111e-06  6.3082786510443371e-06  5.7669919860250658e-06  6.1528411993890692e-06  6.4959126248036267e-06  6.5484336385720963e-06  7.0978821450609645e-06  7.5451106318153337e-06  7.5422180930765106e-06  6.9002475285138594e-06  7.2377699121809462e-06  7.8272463827696617e-06  8.0456783230956200e-06  7.9108788899981876e-06  7.7480779941503627e-06  6.7675421735722051e-06  8.2856773058705884e-06  8.0632679963305638e-06  6.9181129770668189e-06  6.6481173152586468e-06  7.3145763466373031e-06  7.2667879789650668e-06  6.2191755387597687e-06  6.3315274463462604e-06  6.5792310018451040e-06  4.1755160256459593e-06  5.6249566107041506e-06  5.7538325705209236e-06  6.0102147891469719e-06  5.5958908482964877e-06  4.6749551933253662e-06  4.1210243238733149e-06  3.7910820871124126e-06  3.8043416558616321e-06  3.8398528760581920e-06  3.4351893078294710e-06  2.6490351887168661e-06  2.4353773572585385e-06  2.3312281756885260e-06  1.9783928467765230e-06  1.4755467310876005e-06  1.0956031544013303e-06  9.4478180720641230e-07  6.7327367445124768e-07  3.5323760206644019e-07  4.0324207901223456e-08  -1.7891812358625163e-07  -4.7253334002178717e-07  -5.3936260292458426e-07  -9.5802487006640673e-07  -1.1451091255741719e-06  -1.3632032030056014e-06  -1.5335772651867676e-06  -1.4365424825936643e-06  -1.4635493438700208e-06  -1.6503662863960853e-06  -1.8956932845864031e-06  -1.9188585711990025e-06  -1.6519116873331039e-06  -1.6204157690600806e-06  -1.8423550392003781e-06  -1.5234677619714838e-06  -1.3047974143442074e-06  -1.8356066287484986e-06  -1.8970016536408573e-06  -1.5564829355563737e-06  -1.7193730665496394e-06  -6.9776500170793574e-07  -7.5838307446435344e-07  -7.5302962220503080e-07  -8.5577699976807976e-07  -7.9794028385268163e-07  -5.1879666771562404e-07  -3.6475101722619524e-07  -2.1148223059502752e-07  -2.4394044137556023e-07  -1.2129352363873081e-07  -1.6553505726160566e-08  3.7830624935835334e-12  3.4218136243181075e-07  2.0738133727820257e-07  1.4749449346921829e-07  2.9116628339497024e-07  4.9897639572023882e-12  1.9867143733401804e-07  1.6917792690039447e-11  1.5585521734973496e-07  1.9126871134381371e-11  2.2581539518279245e-11  -1.7089984563754878e-11  1.2930868752114537e-07  3.1699615883706319e-12  1.5105454350375631e-07  -1.9131205294230358e-10  1.3433336019823967e-07  1.1712766064588879e-07  -1.8587030467571559e-11  1.2377794743386603e-07  -6.4076098569334379e-12  1.8123039099756219e-07  -1.7566440955869785e-12  9.5342238922220552e-08  2.0080280900239350e-07  -1.8499835437286710e-11  2.3529394084352690e-07  -1.2675770694516211e-11  1.5651722488453360e-07  1.7296526288141399e-09  7.0214921654876647e-10  1.6505584975111271e-07  1.1771874307079914e-09  1.1214940110267291e-09  1.4419079420147959e-07  2.0199506357519127e-07  -2.6740807617824498e-12  -1.0591527782315826e-11  -7.0583546566878340e-12  1.5455997677649029e-07  2.2531265121804579e-07  -1.9874752312591529e-12  1.4896804029990845e-07  2.7767874247657528e-07  -2.3537602949320490e-12  3.4914301674451102e-12  -1.9753178456745640e-12  1.2535906440761692e-07  1.7546828188348613e-07  1.0544290351425294e-07  1.8187155953385215e-10  3.5770207133105203e-10  1.2465107306209940e-07  3.2795509326400616e-07  -8.7955939547210404e-12  1.9649881004293094e-12  -1.4386109863447650e-05  -5.7418269385871128e-08  1.5304615026092717e-07  -2.5737135164115529e-09  3.8766651838604740e-10  2.9399136920602587e-10  2.5853570442701805e-10  4.8225504686206834e-10  6.1678407457071021e-11  -2.3321749570908140e-09  -9.1258760039609167e-11  3.0779924200729996e-09  3.2221096231337449e-09  1.0368543860677785e-09  4.9951914211454180e-10  5.9040103712790269e-10  1.0467220154606177e-09  4.8584485225955111e-10  4.8176820743764072e-10  6.0374821049026684e-10  6.1565117984321518e-10  8.9941053566953850e-10  3.9985868177778646e-10  2.5491199274599878e-07  2.5238573144003454e-07  1.7022280116728905e-09  3.2841019582850975e-07  -8.5736401841534163e-11  1.1771374075040178e-08  1.1771012109521273e-08  -5.0826358024439825e-10  -1.5644340235165864e-12  -1.8691193762959831e-11  -1.6654134625962330e-09  5.6141590396144824e-10  -1.7929941500948802e-10  3.4499191854015201e-09  9.7339539380335315e-11  -1.1331335822151289e-10  -6.1534377058170386e-12  -6.6731394046346758e-09  -8.4117443226347559e-09  1.7719782257600367e-10  -2.1313865995765690e-07  1.4090623671698276e-08  1.6051333936922965e-08  5.4032428319217519e-07  1.1233949104528316e-08  5.2604295607435452e-11  1.2637269349249167e-10  1.5023583143757353e-09  -4.9306006047447807e-11  5.2724080382265794e-11  1.2759375033064804e-09  9.8750207551178449e-10  2.3686006046051772e-10  1.7026721198262949e-11  1.1308496406257800e-10  -1.1366530568700506e-11  1.6857099098469102e-07  9.1589251726437446e-09  1.2713403865389844e-08  5.4910339865004027e-09  3.3087213843479424e-11  2.8463257820360229e-10  -3.5539282051465182e-10  5.9942218853095215e-09  4.6327347126069801e-09  6.4828945084417226e-09  -8.1897236653884400e-12  6.7495878832566354e-09  1.0041341542785184e-08  -1.3200740965927170e-10  -9.7655332891741189e-11  -4.8111723610408500e-11  -4.0804726372607176e-12  2.3675241193986670e-11  -4.6787423847600094e-09  1.5298826261214197e-12  1.5062531415141452e-08  -4.5214988081850599e-13  1.8671811752343130e-08  1.5129737844013152e-08  1.2025835390139367e-08  1.6955349798395425e-07  -9.2982789019837093e-10  -4.8166521785825448e-12  -1.4590182453053064e-11  1.7218421754622221e-07  1.9698547723580298e-08  -6.1053703370283332e-10  1.6763625058224101e-07  2.1763008568516076e-07  7.9418494028487480e-09  2.9330926297589275e-07  5.5915690475353067e-09  2.9596188345934439e-07  1.7835979877071554e-07  1.9611224440900728e-08  1.0130339868276273e-08  1.5058797003230558e-08  2.1930455521075956e-08  1.5867064430623278e-07  6.7614751552223661e-09  5.6457521184942235e-12  6.8784326278381557e-09  1.7638242904441062e-11  1.4991263108781109e-10  1.6401253068885597e-11  1.5698677145773295e-08  3.3005632246572016e-12  -7.8714806433730591e-11  1.9283510568941101e-09  2.0438413415428758e-07  7.4216424186488882e-09  1.4047795598365319e-07  3.3850784665729741e-07  9.1901952005227824e-09  9.1713205166676508e-09  1.4538450935236766e-07  1.9576560643114690e-07  6.2131114879961666e-09  1.4926662879501484e-07  7.0343902604878807e-09  6.6858288167470311e-11  1.3920660300399356e-08  1.0930536948705478e-08  9.3797710148728911e-09  2.1356986778830913e-08  2.5875950459112739e-08  -3.4477857310714245e-11  3.4694861944713950e-10  4.3860482133356654e-11  1.6990854369738690e-10  8.8748830627736853e-09  1.6995400196826249e-09  1.7729240128821416e-11  1.1142660879356045e-10  -4.9920076721789200e-11  3.2295496940634998e-11  7.8964466932813828e-09  9.3379175525634459e-09  7.8064618971336328e-09  1.7871199815408905e-08  6.3092148276575672e-14  2.7785014118504837e-11  1.5168840731671560e-08  4.0502656218033005e-12  -4.6898344701443724e-12  1.1802285563033954e-07  3.5003124797387850e-07  -1.7644362054061661e-08  -6.6226033602558495e-07  -6.5399572437994679e-06  2.3237313615101507e-07  1.9083796714156077e-07  1.6466777979369499e-07  -1.9792544224406144e-08  7.6834073594423567e-08  1.5374800747695518e-07  1.5325293043663795e-07  2.7698767491794657e-07  1.3920232778689933e-07  1.4693684729727176e-07  1.5376322602462989e-07  2.1511670977514792e-07  1.2510914839739156e-07  -1.9326055994979044e-05  1.4161017565427024e-08  1.3881782292453231e-07  1.7514237680351240e-07  2.5978840272238887e-07  1.1559188032259031e-08  4.0850968727327915e-11  -1.6486004158644071e-11  2.6876416487312278e-11  -2.5064618743320873e-11  3.0284154122168649e-11  2.2916597419176826e-08  1.3228377046128500e-08  1.8065610973937765e-08  9.2053843032813764e-12  5.8090797668801573e-11  -2.1373215147576121e-11  -1.4607824777495140e-09  2.7995030969953425e-12  -4.4672958502869361e-12  7.6364056269055161e-11  2.7970660198261833e-11  -1.7141010462865998e-11  3.7477328517994636e-10  3.6031080215326875e-11  1.4365474389820353e-11  1.8138720725470477e-11  4.7451915258368042e-12  -1.2850091945568386e-11  6.1984571189636880e-12  4.6031203709618178e-12  -2.1443538714433107e-10  3.2941312338543349e-12  1.9446779112680523e-08  1.4554315627272514e-08  1.4076376813541687e-08  9.5041221721448264e-09  8.9904216975462610e-11  -9.4150541163474375e-12  4.0263690503997374e-10  -5.3364688316201469e-11  1.1043731537151838e-08  -2.5880756628470163e-11  7.3004669092532675e-10  1.6970298106602043e-08  5.0523715004093792e-10  -2.2611690561613747e-11  2.2775062162570328e-10  -7.7916618336048625e-11  1.0864378000421675e-08  1.9096211619033908e-08  -2.6815336056074180e-08  1.0022067185196361e-08  -2.7943444967027579e-08  4.3954317476939786e-10  -1.6856949761217645e-10  2.3099871495561470e-09  -5.9370654569156117e-10  -2.5190978858520990e-08  2.4054035645696029e-11  1.2600322792366909e-11  1.1343469900130481e-08  7.3210770703425496e-09  1.5636610677709745e-08  -9.7772220371397239e-10  -7.5002382497796488e-10  3.9683343962338793e-11  5.0925533217765412e-10  -2.2967049290686249e-11  3.1722813667427752e-08  1.0801480274059214e-09  1.1743702907072888e-09  2.5747592794498877e-09  8.7139210437302935e-10  2.6260236966323917e-10  7.2914468908178240e-10  2.5895748042273882e-10  1.6281835696431829e-08  -2.0478686788355392e-09  3.8218890483834409e-08  -2.3815202379956100e-08  -2.1579668942311905e-10  -1.6528696021077395e-10  -4.4604868341598114e-10  -2.4100175774070725e-10  5.2690914056734301e-09  -5.2640186234658926e-10  -2.3609413556451875e-09  2.5028312688645976e-08  1.7091767019399182e-10  5.1485590446371028e-08  3.0579705267116127e-10  6.9417280692503867e-09  8.5338302748488697e-09  1.1919932815451050e-07  1.9620797721621197e-06  1.4422960712700879e-06  -5.6337034295558706e-11  7.9929011398040145e-09  5.7940793844232444e-08  5.4698026316180354e-09  5.7646285832290807e-09  -4.4586537993931240e-08  -3.4174403038560770e-08  2.1212277594543287e-11  -2.1275012395798122e-11  -5.0040211430449581e-12  1.8201697358471125e-08  -2.5452436770642169e-09  4.3164937769504342e-09  -6.9239972843527614e-10  -2.3078504254714594e-12  -2.6604933254375427e-11  2.9387302976334242e-11  9.4426913035933293e-11  1.3553530414873083e-10  5.5086926078027006e-10  -2.9158757873382781e-09  3.2346668168007981e-11  -3.8403037009775017e-10  6.1384553712105259e-12  6.2518922078861869e-12  -6.3649034572814212e-07  1.8886019621967787e-08  -1.0133591477870846e-11  -2.1015955708442300e-08  1.7724567681607527e-11  4.2457117749864718e-10  3.1138323597996200e-12  -2.5083127431512992e-08  6.3842540711924833e-09  3.4880441894204831e-08  -4.6972923498783959e-11  1.0835026207115876e-09  1.1195177085024187e-09  1.1008481525769592e-09  4.6320365864860984e-10  -6.1997757688044552e-12  3.1498489188795201e-10  3.4391570073370705e-08  2.9151723483587775e-08  -1.2718526719294222e-09  -8.6920478517766306e-09  -1.3971390558216363e-08  4.6725354620260534e-12  6.4422977404486436e-10  -1.0588108999149370e-10  -1.0646362571349193e-11  6.1657969187515705e-10  3.4122217381718550e-10  1.3487990321139880e-09  -1.9824424143497117e-05  -1.4764952101959579e-06  1.8340161866501674e-08  -8.1057024038280656e-11  2.2664056184392772e-07  1.8806535199649055e-07  1.0560399305144272e-08  2.1038194386778339e-07  4.1134517499280907e-11  7.0657383597134102e-10  3.7848599034075611e-11  -1.6950003330369253e-10  1.5257737088044894e-12  2.4061305047904433e-11  1.7638837585940168e-09  9.3751023531938014e-10  -1.2954298494733318e-06  3.7739933320967452e-10  1.4042634201982144e-10  1.6073478990186925e-09  3.7425856718897192e-08  8.9542247926316558e-10  -5.1668948682204649e-12  2.6384982269280087e-10  -2.6768641582853689e-09  -1.9056633423112831e-10  2.1357275334248987e-08  3.5047036040279340e-12  1.9942076781450503e-07  3.0273297268456680e-10  -9.4938646232902063e-11  1.8474268874032523e-10  2.6933217513027719e-09  -3.2589564370341459e-09  2.7158104521517028e-07  -4.6235834504940369e-10  7.8966674368735339e-09  -2.2091355133830710e-10  1.4938555240534139e-08  3.8939736408562182e-12  9.3237458935360720e-12  3.7010298174366701e-11  5.5862815331706526e-12  3.9253955499534520e-10  -1.0834385459024834e-11  6.5435234625261234e-09  6.8704820459446905e-12  5.4926680274130550e-09  4.1364528227560697e-09  -1.1179169981925038e-11  1.4207930931337194e-11  1.7856023217880254e-07  2.5905515133990314e-09  5.0763865027490278e-11  -3.0452188327758820e-11  3.4405103216026789e-09  1.1533474733235861e-08  2.0638391079231027e-08  -5.9098829059880597e-11  5.5468553165183617e-10  7.5741274877149962e-09  -1.1915442309118881e-09  4.1881950908876068e-08  -8.4632627552018604e-10  -1.2796968061540141e-10  9.0515331356864119e-09  -6.7564203780479804e-07  1.0880825379227244e-08  5.3998905139033926e-09  2.1694920569730375e-07  8.6859436521671336e-10  2.1533565494211409e-09  -7.8116893790722815e-11  -1.7964152727447628e-09  7.9471659690658257e-09  1.8469607865951499e-09  3.9105432560646585e-09  5.4062850167816529e-09  3.3746594453993123e-08  -6.7951017682121807e-12  6.9059952609572454e-11  8.0126812984552692e-10  3.0683082655589348e-09  1.2059426710987304e-10  -1.2328426686693264e-11  2.9909315046160944e-09  -6.9817490079908495e-12  -1.4887190131381516e-10  6.0661474545175847e-10  2.7146083179390113e-07  1.3908157414284205e-08  3.1359844182720048e-07  5.9357614937174458e-10  -6.5001919971385904e-10  -2.9246061465268534e-09  4.7552647212646399e-11  1.9092163784093845e-08  7.0811311571298563e-09  -1.7345797813893601e-09  -5.7610069259682797e-11  4.8755737514034144e-10  2.6593825000307926e-08  1.3014761155779620e-08  1.3072194344827601e-09  5.3202176032801762e-09  9.4437813671819383e-09  -2.6685712131788212e-11  -6.5105261593322053e-13  -4.4409092922578119e-09  -2.6045014718035743e-09  7.5206270495483084e-11  -1.8449115340595665e-12  -1.0951248509072367e-10  -1.1425008295770462e-10  -1.0048798141055182e-09  -1.5581072412645418e-09  -2.0077180096107189e-10  8.1100780259155913e-09  4.0206086511398082e-10  -2.0972957566926154e-09  1.4360031146680128e-09  7.1727695272635523e-10  1.8181438000855546e-08  1.0014946646431795e-08  7.8805762582591157e-11  -1.8057571228807451e-11  -1.8457747020505399e-11  -2.6893634785932355e-10  2.9172820254640606e-10  -9.8849514662802923e-11  5.5000731781523170e-11  2.7607677844439317e-09  4.7283363697604553e-10  2.0058283841559836e-11  5.9888431646563362e-12  -3.2775829989702324e-10  7.7597908671833686e-09  -1.0306205489557396e-10  -1.3559983635235981e-09  3.6212219417705775e-10  -8.3831089612988059e-11  6.4728591508951505e-10  -5.1250602541869349e-10  1.2671807814814446e-09  2.2318502093931988e-07  4.0495460175621726e-09  3.8679159853274564e-10  -3.4071867022335315e-11  1.7924307592922147e-10  3.4258195253702179e-11  3.5067392174280283e-08  2.7128037697084267e-09  -3.6944279961739263e-09  7.9401441767297946e-09  5.5713067902925658e-11  -1.9962743800515150e-09  2.4887827182787641e-07  3.3903252659937713e-07  -2.9581179316777351e-09  6.9142782402461485e-09  1.0756525430658416e-08  1.4369243410597114e-08  5.4133530802758381e-09  -1.6829870030309877e-08  -6.9975864139125669e-11  7.6381710637935240e-09  -1.9175511491302297e-09  -8.4308525379723905e-10  -7.7343700826729256e-10  -3.3152617657895037e-09  4.3676621416823116e-08  1.5787825882043445e-08  3.4896322278586567e-09  4.8840795736361612e-08  -1.2470551130878474e-11  1.6663232402227558e-12  3.2785957176575246e-07  1.8418454252650035e-11  7.7432054651488027e-11  1.6811560576636978e-07  2.2140610349662706e-08  1.7131280983252546e-07  2.1407741505318570e-08  -1.4436929579545042e-12  4.8436278634888825e-10  -9.2841789279932358e-12  3.4673480587606944e-07  8.7091853182515383e-09  1.5283252791473238e-10  3.8692936598150616e-07  1.2183834351175940e-09  5.4687812700872232e-09  6.4565864839099421e-12  1.4281274561640729e-10  -4.2476011669253167e-11  1.0011960486445349e-09  3.3322990771190840e-09  1.1501772580219643e-10  -5.6048830566983680e-11  1.4495069632324616e-09  1.6346745467742527e-11  1.7003413882377395e-12  8.0640241122242894e-14  -1.7878746218093801e-10  2.0592135292584871e-10  2.9130823169028169e-07  -1.9776457085644851e-11  2.7954403673515652e-09  3.2219234320158463e-08  1.9772532166939326e-07  -2.4162424661592913e-11  -1.4462135056842330e-08  9.2288275130112281e-10  4.0365229275805265e-08  3.6398152408872123e-09  -5.1954156307194052e-10  -2.5425857746231691e-09  -2.9629199022727541e-10  1.5190077752110998e-08  5.6717145033930562e-09  -1.3436484298667726e-08  1.5231186614051793e-08  1.4663158505068383e-11  1.0067673840010251e-07  2.6916894107179216e-08  1.1324328542073456e-12  -1.7130164407234620e-11  6.2397303412545470e-09  -8.3281761028378864e-09  1.2323391570431426e-07  -6.3340725396548944e-09  1.1588112557481459e-08  7.6716549399901539e-11  2.9833036182896938e-10  1.2309424198382267e-11  4.9940110040814424e-10  -1.7221234468493164e-11  2.6701664924659024e-10  -8.2365198753915740e-09  3.2824393670166374e-09  8.3133018876469096e-09  -5.2092953228027422e-11  -2.4191616379691319e-11  1.7752836622185003e-09  7.7174035179636650e-10  1.1694682996772000e-09  1.3616726486583355e-10  1.2953566453145448e-11  -1.3628783093309514e-11  8.1682356494809968e-11  1.4230588488140344e-08  -3.0672891092419279e-09  7.0326940305554077e-10  -3.1558035064652818e-09  6.0296557053508051e-09  1.3083130732767376e-08  -4.6439729199931520e-09  6.5294575098722060e-12  1.2151868344278717e-11  9.9257275587538090e-12  -4.5018236956815785e-10  1.1451626109900792e-12  1.2374822842493646e-07  1.5700100079987332e-07  2.0406397736377041e-07  7.0065801179852817e-11  -8.6441616937193925e-12  1.4893679699473784e-07  1.0761941996023174e-08  6.2858357326846892e-09  -1.6577086771141353e-10  3.8364600910464643e-11  -3.7574888976918595e-11  2.1926409368366707e-07  -8.8705492091896362e-08  3.4671798396334399e-06  1.3199144610737315e-08  3.3458758118284064e-09  3.5932135886942043e-09  1.2877251386850314e-08  5.3047197990236929e-12  1.2630345035906074e-07  7.6097454370159432e-12  3.4829084448691604e-08  8.4929730622617296e-12  -1.0928559854898285e-10  4.8567078094916407e-09  -1.2612100037890793e-11  -8.1515172116726859e-08  -2.2846250619298027e-10  2.4721859158356038e-11  1.1205007064008295e-09  7.4704509815106199e-07  -3.4629426008334938e-06  1.6995872653470326e-08  2.3489191208625748e-08  3.4127502282199767e-10  8.6513989563965494e-09  1.0681348727495298e-08  -7.2311579526925340e-11  2.1335779020736410e-11  3.1727874119155332e-11  -1.1972229304102581e-11  1.9638046810709022e-10  -2.2487862161648699e-09  1.1496708692962318e-09  1.9434632742206453e-08  1.8121905466534016e-08  -2.6743696087482261e-08  1.5435428952110377e-11  -2.4408566967714197e-10  -2.1271305271631499e-08  -1.2680838728006012e-08  -1.70878