<?xml version="1.0"?>
<VTKFile type="UnstructuredGrid"  version="0.1"  >
<UnstructuredGrid>
<Piece  NumberOfPoints="2912" NumberOfCells="5086">
<Points>
<DataArray  type="Float64"  NumberOfComponents="3"  format="ascii">-20 2.5 0  -20 0 0  -1 0 0  -0.9996988186962042 0.02454122852291233 0  -0.9987954562051724 0.04906767432741797 0  -0.9972904566786902 0.07356456359966773 0  -0.9951847266721968 0.09801714032956083 0  -0.99247953459871 0.1224106751992163 0  -0.989176509964781 0.1467304744553618 0  -0.9852776423889412 0.1709618887603012 0  -0.9807852804032304 0.1950903220161286 0  -0.9757021300385285 0.21910124015687 0  -0.970031253194544 0.2429801799032641 0  -0.9637760657954398 0.2667127574748985 0  -0.9569403357322088 0.2902846772544624 0  -0.9495281805930367 0.3136817403988914 0  -0.9415440651830207 0.3368898533922203 0  -0.9329927988347388 0.3598950365349883 0  -0.9238795325112867 0.3826834323650899 0  -0.9142097557035307 0.4052413140049899 0  -0.9039892931234433 0.427555093430282 0  -0.8932243011955152 0.4496113296546069 0  -0.8819212643483549 0.4713967368259979 0  -0.8700869911087113 0.4928981922297841 0  -0.857728610000272 0.5141027441932218 0  -0.8448535652497071 0.5349976198870972 0  -0.8314696123025453 0.5555702330196022 0  -0.8175848131515836 0.5758081914178454 0  -0.8032075314806448 0.5956993044924335 0  -0.7883464276266062 0.6152315905806269 0  -0.773010453362737 0.6343932841636455 0  -0.7572088465064846 0.6531728429537766 0  -0.7409511253549589 0.6715589548470186 0  -0.7242470829514668 0.6895405447370671 0  -0.7071067811865475 0.7071067811865476 0  -0.6895405447370669 0.7242470829514669 0  -0.6715589548470184 0.740951125354959 0  -0.6531728429537765 0.7572088465064847 0  -0.6343932841636454 0.7730104533627371 0  -0.6152315905806267 0.7883464276266063 0  -0.5956993044924334 0.8032075314806449 0  -0.5758081914178453 0.8175848131515837 0  -0.555570233019602 0.8314696123025455 0  -0.534997619887097 0.8448535652497072 0  -0.5141027441932217 0.8577286100002721 0  -0.492898192229784 0.8700869911087115 0  -0.4713967368259977 0.881921264348355 0  -0.4496113296546067 0.8932243011955152 0  -0.4275550934302819 0.9039892931234434 0  -0.4052413140049897 0.9142097557035307 0  -0.3826834323650897 0.9238795325112867 0  -0.3598950365349882 0.9329927988347388 0  -0.3368898533922199 0.9415440651830208 0  -0.3136817403988914 0.9495281805930367 0  -0.2902846772544622 0.9569403357322089 0  -0.2667127574748983 0.9637760657954398 0  -0.2429801799032639 0.970031253194544 0  -0.2191012401568697 0.9757021300385286 0  -0.1950903220161282 0.9807852804032304 0  -0.1709618887603012 0.9852776423889412 0  -0.1467304744553616 0.989176509964781 0  -0.1224106751992162 0.99247953459871 0  -0.09801714032956065 0.9951847266721969 0  -0.07356456359966733 0.9972904566786902 0  -0.04906767432741801 0.9987954562051724 0  -0.02454122852291214 0.9996988186962042 0  6.123233995736766e-17 1 0  0.02454122852291226 0.9996988186962042 0  0.04906767432741813 0.9987954562051724 0  0.07356456359966745 0.9972904566786902 0  0.09801714032956077 0.9951847266721968 0  0.1224106751992163 0.99247953459871 0  0.1467304744553617 0.989176509964781 0  0.1709618887603014 0.9852776423889412 0  0.1950903220161283 0.9807852804032304 0  0.2191012401568698 0.9757021300385286 0  0.242980179903264 0.970031253194544 0  0.2667127574748984 0.9637760657954398 0  0.2902846772544623 0.9569403357322089 0  0.3136817403988916 0.9495281805930367 0  0.3368898533922201 0.9415440651830208 0  0.3598950365349883 0.9329927988347388 0  0.3826834323650898 0.9238795325112867 0  0.4052413140049899 0.9142097557035307 0  0.4275550934302822 0.9039892931234433 0  0.4496113296546066 0.8932243011955153 0  0.4713967368259978 0.8819212643483549 0  0.4928981922297841 0.8700869911087113 0  0.5141027441932217 0.8577286100002721 0  0.5349976198870973 0.844853565249707 0  0.5555702330196023 0.8314696123025452 0  0.5758081914178453 0.8175848131515837 0  0.5956993044924335 0.8032075314806448 0  0.6152315905806268 0.7883464276266062 0  0.6343932841636455 0.773010453362737 0  0.6531728429537768 0.7572088465064845 0  0.6715589548470183 0.7409511253549591 0  0.6895405447370669 0.7242470829514669 0  0.7071067811865476 0.7071067811865475 0  0.724247082951467 0.6895405447370668 0  0.7409511253549591 0.6715589548470183 0  0.7572088465064846 0.6531728429537768 0  0.773010453362737 0.6343932841636455 0  0.7883464276266063 0.6152315905806268 0  0.8032075314806449 0.5956993044924334 0  0.8175848131515837 0.5758081914178453 0  0.8314696123025452 0.5555702330196022 0  0.8448535652497071 0.5349976198870972 0  0.8577286100002721 0.5141027441932217 0  0.8700869911087115 0.492898192229784 0  0.881921264348355 0.4713967368259976 0  0.8932243011955153 0.4496113296546065 0  0.9039892931234433 0.4275550934302821 0  0.9142097557035307 0.4052413140049899 0  0.9238795325112867 0.3826834323650898 0  0.932992798834739 0.3598950365349881 0  0.9415440651830208 0.3368898533922201 0  0.9495281805930367 0.3136817403988915 0  0.9569403357322088 0.2902846772544623 0  0.9637760657954398 0.2667127574748984 0  0.970031253194544 0.2429801799032639 0  0.9757021300385286 0.2191012401568698 0  0.9807852804032304 0.1950903220161282 0  0.9852776423889412 0.1709618887603012 0  0.989176509964781 0.1467304744553617 0  0.99247953459871 0.1224106751992162 0  0.9951847266721969 0.0980171403295606 0  0.9972904566786902 0.07356456359966743 0  0.9987954562051724 0.04906767432741801 0  0.9996988186962042 0.02454122852291229 0  1 0 0  20 0 0  20 2.5 0  0 2.5 0  -10 2.5 0  10 2.5 0  -10.5 0 0  -5 2.5 0  10.5 0 0  5 2.5 0  -5.75 0 0  5.75 0 0  -15.25 0 0  -15 2.5 0  15.25 0 0  15 2.5 0  -17.625 0 0  -17.5 2.5 0  17.5 2.5 0  17.625 0 0  12.5 2.5 0  12.875 0 0  -12.5 2.5 0  -12.875 0 0  -2.5 2.5 0  2.5 2.5 0  -8.125 0 0  -7.5 2.5 0  8.125 0 0  7.5 2.5 0  -3.375 0 0  3.375 0 0  -18.75 2.5 0  20 1.25 0  16.4375 1.19375 0  -16.25 2.5 0  13.75 2.5 0  -14.0625 0 0  -11.6875 0 0  11.6875 0 0  8.75 2.5 0  -8.75 2.5 0  6.9375 0 0  6.25 2.5 0  -6.25 2.5 0  -9.3125 0 0  -6.9375 0 0  9.3125 0 0  11.25 2.5 0  -11.25 2.5 0  3.75 2.5 0  4.5625 0 0  -4.5625 0 0  -3.75 2.5 0  -13.75 2.5 0  14.0625 0 0  -16.4375 0 0  -20 1.25 0  -18.8125 0 0  18.75 2.5 0  -18.21875 1.2359375 0  18.125 1.278125 0  -15.84375 1.2125 0  -14.375 1.30859375 0  14.65625 1.203125 0  2.1875 0 0  -2.1875 0 0  13.125 1.315625 0  3.125 1.315625 0  -3.125 1.315625 0  -12.28125 1.1890625 0  -5.15625 1.184375 0  11.09375 1.184375 0  5.625 1.325 0  -10.97262068800044 1.220713793599868 0  9.375 1.32734375 0  -6.875 1.32734375 0  -9.67626828410207 1.24449497187193 0  8.061334925608099 1.312208731402025 0  -8.188665074391901 1.312208731402025 0  -1.25 2.5 0  1.25 2.5 0  4.37465139623265 1.41327350462657 0  16.25 2.5 0  6.84375467392576 1.430449641528851 0  -1.846573640185365 1.334702047669377 0  1.846573640185365 1.334702047669377 0  -17.02955351149946 1.396129584721571 0  16.4375 0 0  18.8125 0 0  -13.31314667860176 1.511193493282891 0  -4.122005747945582 0.961844908681634 0  12.12799425205442 0.961844908681634 0  15.54930641305724 1.660405980876393 0  19.0578783583929 0.9559530595267438 0  8.71875 0.6864560603786576 0  -7.53125 0.6864560603786576 0  -0.6257799091428727 1.819008129832856 0  0.6257799091428734 1.819008129832855 0  6.291331569065717 0.7194652423646902 0  -19.11204717950418 0.9044926794710327 0  -4.488713231834613 1.772186102355655 0  11.76128676816539 1.772186102355655 0  -19.28185607205105 1.781856072051052 0  19.30868080343342 1.808680803433421 0  9.90625 0.6371857066656857 0  -6.34375 0.6371857066656857 0  3.796921710049233 0.7617406159238448 0  7.392020585015773 0.7480839107774819 0  -8.910372062800235 0.7929553447587234 0  10.2506781820361 1.451853913138859 0  -5.999321817963904 1.451853913138859 0  4.957643119381741 0.7716423099297361 0  17.29984375 0.8640625 0  15.41193625859067 0.8279888354083842 0  -13.72251704931534 0.7728002662082776 0  16.875 2.5 0  17.12178336313261 1.690954734835967 0  -11.64001625260176 1.74572103154608 0  2.477726735235857 0.7850262278604345 0  13.46875 0 0  13.765625 0.7802887470308788 0  -2.78125 0 0  -2.477726735235857 0.7850262278604346 0  -10.33383379274331 1.744431431923121 0  13.91957519050334 1.653419259628842 0  -15.08147780274903 0.8341506893754731 0  -15.14066649024666 1.671962869821843 0  -8.950686484882164 1.678622661163363 0  -17.55392917606836 0.794731598412167 0  -16.80247533599675 0.6688259240674158 0  -12.94289066923278 0.7766744225472476 0  -9.90625 0 0  -10.31601468672093 0.7730817089126454 0  -18.21875 0 0  -12.28125 0 0  -17.68515668569534 1.768907656575843 0  18.21875 0 0  10.85059123027421 1.880344717307101 0  -5.399408769725794 1.880344717307101 0  -3.738137326223278 1.749164834446819 0  -3.125 2.5 0  12.46235897590077 1.601301060091387 0  -11.09375 0 0  -11.61661448001209 0.7781698802173554 0  -15.625 2.5 0  -1.764022608759088 0.6027229563180789 0  1.59375 0 0  -8.125 2.5 0  8.125 2.5 0  8.713468311289519 1.727645658498745 0  9.375 2.5 0  -7.536531688710481 1.727645658498745 0  -6.875 2.5 0  14.375 2.5 0  17.78381794101733 1.874391370085592 0  18.59891476281433 1.80649740393129 0  -18.58835555265984 1.824268641341969 0  1.806126122135773 0.6510673837470153 0  -16.875 2.5 0  -16.36681393636619 1.755298393865037 0  -16.13072438662071 0.6014017614895231 0  -13.92460230791385 1.83195710210235 0  -14.40198779087891 0.6105385965811564 0  20 0.625 0  19.40625 0 0  14.6875 1.888836596385542 0  14.65625 0 0  12.78248197181444 0.6991460920542635 0  -3.467518028185561 0.6991460920542635 0  13.125 2.5 0  2.491957142932539 1.738660596534321 0  3.125 2.5 0  1.875 2.5 0  3.718973573227002 1.75927763286174 0  -2.491957142932539 1.738660596534321 0  -1.875 2.5 0  -9.375 2.5 0  6.2001972846108 1.772767401802766 0  5.625 2.5 0  5.027483518098582 1.760895488350309 0  5.625981449127788 0.6566963631252629 0  -12.30101114679273 1.859484693920165 0  9.742489932362783 1.884363450023167 0  -6.507510067637216 1.884363450023166 0  1.13492303295015 1.283502262067074
[...]
<PointData  Scalars="f_6765430"> 
<DataArray  type="Float64"  Name="f_6765430"  format="ascii">-1.9901475686316250e-01  -2.3603195382367642e-03  -2.2411334578837431e-02  -7.3538462964385543e-02  -1.3366953388888184e-01  -1.9548155307705412e-01  -2.5663558645012741e-01  -3.1834426832353696e-01  -3.8080182856562567e-01  -4.4079934238569007e-01  -4.8244849658529354e-01  -5.8408399998203309e-01  -6.3068008911425866e-01  -6.9540693285130095e-01  -7.7564501763343441e-01  -8.4959279235223750e-01  -9.2186660663829390e-01  -9.8133730357132298e-01  -1.0518524295178266e+00  -1.0949982535650906e+00  -1.1752177587644705e+00  -1.2072819200966267e+00  -1.1948860862067774e+00  -1.2687038399418320e+00  -1.2465753988563719e+00  -1.2288521753114094e+00  -1.1875657910486170e+00  -1.1250196232490619e+00  -1.0376979524812200e+00  -9.7599027696564633e-01  -8.6934757543013375e-01  -7.1748513509833101e-01  -5.0129783187870236e-01  -3.1720344499155978e-01  -1.2564915939159196e-01  1.3788626464173143e-01  3.9604667639286484e-01  6.5991951681256467e-01  1.0041755288070675e+00  1.3213480006027156e+00  1.6588185388192682e+00  2.0389414523418918e+00  2.4134547008267040e+00  2.7971300783628790e+00  3.1742976418469602e+00  3.5785002388239562e+00  3.9481026370182724e+00  4.3450461847241382e+00  4.8020197838847389e+00  5.2344774968162691e+00  5.6033130138586911e+00  5.9636625093120390e+00  6.3579909363445601e+00  6.7133728302508597e+00  7.0510475205791829e+00  7.3628183959074853e+00  7.6503080260132306e+00  7.9326884839899998e+00  8.1793347188389109e+00  8.4189199714381360e+00  8.6515582404470965e+00  8.8591329974981239e+00  9.0192270290758429e+00  9.1456607440854398e+00  9.2611708096715688e+00  9.3389748522587528e+00  9.3773819457412824e+00  9.3998201163516271e+00  9.4223680874484650e+00  9.4286569162519580e+00  9.3493240469380208e+00  9.2806629189037082e+00  9.1502478367723761e+00  8.9687075219094474e+00  8.8220952158071704e+00  8.6286146746746688e+00  8.4139922991018636e+00  8.1252879979922366e+00  7.7691133052049581e+00  7.5617460324077594e+00  7.2337879206159839e+00  6.8769770863053106e+00  6.5481588145399794e+00  6.2040658117636029e+00  5.8537412911334439e+00  5.4860523703927635e+00  5.0708698782443653e+00  4.6184491157626475e+00  4.2460795902363646e+00  3.8108380562010669e+00  3.4308660908033404e+00  2.9075786980075646e+00  2.5541874981878503e+00  2.1670230962592383e+00  1.8222732215562181e+00  1.4191999192927249e+00  1.0066966511037552e+00  7.1215643334054213e-01  3.6058071384495222e-01  4.0160910512778078e-02  -1.7468927147837224e-01  -4.1276219836832356e-01  -7.2172423223763815e-01  -9.0326074600288642e-01  -1.0807107094360950e+00  -1.2380895607034503e+00  -1.2847017699666798e+00  -1.3792359904479932e+00  -1.3913519387867996e+00  -1.4455815939192369e+00  -1.4235198100896449e+00  -1.3696937845501802e+00  -1.2702700677286569e+00  -1.2472092664667134e+00  -1.2027944790613958e+00  -1.1018758426938320e+00  -1.0016018419600967e+00  -9.2113356719281614e-01  -8.4712903481863433e-01  -7.5025289122338390e-01  -6.4311342974057439e-01  -5.6085230477774384e-01  -4.8988457579262873e-01  -4.1626797663242998e-01  -3.5281401111970806e-01  -2.8668365077302282e-01  -2.2735930332852286e-01  -1.6765091937808624e-01  -1.1261161299296689e-01  -6.0400429597508118e-02  -1.5440385468179042e-02  7.1757670912073472e-07  3.6041046429228784e-06  -6.0478196858898707e+00  1.5915737893188468e-07  2.3542218142066184e-05  1.5037135727092588e-06  -3.9970640203817161e-03  5.8510598325204193e-06  3.7726032830792336e-04  3.5964404488068973e-03  1.7123799434896909e-02  4.6527524218525592e-04  -1.5337528047653344e-04  8.0260167014726162e-07  3.5805625642051884e-06  -1.2565716346564504e-03  -5.4899331340907088e-03  3.5599600931112567e-06  7.9247425468701829e-07  4.0255967689795523e-06  6.2279234300419340e-07  2.2963167607542915e-06  3.4501114455845477e-05  -1.3235199328848327e-01  -4.9764973614062030e-01  7.7673955778329189e-05  -3.5942228519193283e-05  5.7750052063234019e-04  4.1781026227046962e-04  7.8286747351775918e-02  1.9622425948091432e-01  -2.9929953525321819e-02  2.0900597022818564e-06  2.0507004481964943e-06  -1.0566450086283655e-03  3.6141807308006882e-06  1.5625021054911924e-04  5.3686140141168024e-06  6.3084063327799375e-07  1.0210670770886547e-04  -2.0387973056082820e-06  3.3791005337913756e-03  1.1362920489759866e-03  -4.8860159365742657e-04  8.8330550436576032e-06  5.5035727192790946e-04  7.2811425221420945e-05  6.5448803330846443e-06  7.8212264397477925e-07  -3.1640944419914385e-02  6.4509970286958235e-02  1.8377777941339941e-02  -2.2722126944331979e-02  -4.0867323448750754e-06  7.5870969239055359e-07  5.4831044335026588e-04  -1.0031818494451414e-01  -8.7742792118795394e-03  3.5723047327446388e-06  -7.0683227276377679e-03  2.1011725883807400e-06  7.5407631402055718e-04  2.6094687080017163e-04  2.0219543145890656e-06  4.2639969002629341e-01  2.3234354752229250e-01  1.9616671890815524e-06  2.5443342207641906e-01  1.1481295969364907e-01  1.8084988472211857e-05  9.3448966550139009e-03  1.9603003669351764e-06  2.0788189420286728e-02  2.1120866618551304e-06  7.0379049623657259e-05  6.1046586273727434e-04  4.2905560435192074e-06  7.2756325848216739e-04  6.3975665101237129e-05  -1.3814845897627923e+00  -4.2484663573760866e+00  7.4249628519283586e-02  3.5723604466420507e-06  4.0099650302167127e-03  4.1819359427014408e-01  1.1487252516705884e+00  -7.2139835111624122e-05  7.8285815074497699e-07  7.6027911933251063e-07  6.5705900453471086e-05  4.1865872636814516e-02  1.0211868912769675e-06  2.6807483370920915e-06  1.6219583607424515e-06  2.6912485859454700e-04  2.7653678333266547e-04  -4.9892276925484580e-01  -5.2304041709405047e-01  1.0850104229621576e-02  -2.1818846013609304e-02  6.9315737893800569e-03  3.1208203564442332e-06  -5.2076116456658050e-02  2.9483782075894628e-06  2.3514986549921680e-05  1.9119759018644026e-03  1.7737492700266663e-01  2.2702143040184597e-03  2.6388053997158079e-05  1.1635455168158043e-05  2.1239704171003484e-03  5.2153478235445451e-02  1.5872696649232002e-06  1.5284935087124636e-06  1.4609330565198958e-04  3.5751186931017696e-06  2.7234868291410465e-06  3.7879482892589197e-06  6.4150591546741109e-01  7.1690470886135723e-07  1.3699379136818499e-06  1.4473293937706963e-01  2.9391938107965720e-01  7.1527240724566732e-07  2.6606792644849653e-06  5.5309744996770004e-04  2.7169202275155967e-04  7.2704833201559292e-06  -1.0498785383064731e-03  6.1419374050941395e-04  5.3320987145237606e-05  2.9351714926761460e-06  2.1981998692561117e-06  -3.9274820254149492e-03  1.3577864217872730e-05  -3.9454998362184338e-03  7.7925413242696596e-07  6.2843125535472843e-06  1.1953474334959534e-03  1.9133253803575466e-02  -6.1777405512446482e-02  2.4447537289295481e-06  2.1966418114880926e-06  6.7443916200119989e-06  -3.9834386536111632e-04  4.8703141323189869e-01  3.0909730147085546e-01  -1.0670722580982473e-05  2.1451683746857058e-04  1.8037879607400083e-04  5.1860319494045506e-05  8.6310216807168198e-05  -1.3098391087035767e-04  3.5854124461638450e-06  3.0054869822974846e-06  2.9074769604971770e-06  -1.8630860538636308e-02  1.2628498241062047e+00  -2.1995387340183860e-03  -7.2685963173587748e-05  8.5540094048019684e-04  7.3370739646486918e-05  2.9833482442701882e-04  1.2381621610643700e-06  7.2349925786304631e-07  3.0153579593768090e-06  7.6466234663506629e-07  1.0041568460616369e-06  9.8073129063880063e-02  3.7416993320750516e-06  7.4250019113208568e-02  -1.1528638271434523e-01  -1.7853918505179529e+00  6.8268308158858107e-02  1.1142236777532336e-01  -2.8540604678187514e-01  -3.7457301452488437e-07  5.8892999865689435e-03  1.4009969600060747e-03  2.2206599513499056e-02  2.4235973521222719e-02  8.5500917510057132e-06  3.0882781981058709e-05  2.4074447489894155e-04  3.5299804931520824e+00  9.4262410914362049e-01  5.4343270685559646e-07  1.9718094126315443e-02  4.1111356682383929e-06  5.3803614071696541e-03  2.9399405132711411e-06  3.3263754111405081e-01  7.9098886770774143e-07  1.2385835026687441e-06  9.2926848383371961e-05  7.9452048329509291e-04  1.2325512385842556e-03  -6.3210764550226950e-02  -7.7766083405277853e-01  1.1350997340235228e-06  5.3004048251445436e-07  3.6646362642637480e-02  8.1095810404559484e-07  7.5300676616566331e-06  1.2762832818611521e-06  -1.1552797020799147e-02  3.1728483220920997e-06  -7.9111109838573036e-03  -1.3742490626173323e-02  -4.9823642604842934e-02  -3.9527922767166948e-05  7.6127029926859339e-04  -6.3464898949481480e-03  -1.3813585454226995e+00  3.4265990355295586e-07  3.5850398347841105e-06  1.1415863965131664e-06  -7.0038501996012539e-02  4.6239474956951361e-06  -1.0347558072186720e-02  -5.9256651423028943e+00  -3.6215356973681399e+00  3.5813671486407287e-06  -1.4835737327182838e-01  3.0447364525611440e-06  3.6260164450900912e-06  1.1271413223651917e-05  -1.3619543998529746e-03  1.1147474341335405e-04  2.5101510603447149e-06  1.1600053343372015e-06  8.2950106238277154e-03  1.5463140285237512e-06  1.1957102162150666e-06  9.5810028349154993e-05  8.6142632535408935e-06  3.5056512424780562e-04  2.0877725354009604e-05  7.5034895815126782e-04  8.4468739124572329e-05  2.4484217170232994e-01  2.9430188233658955e-04  7.5710981475180756e-05  3.3524103669173501e-02  2.6900733456305524e-05  1.4398364863813862e-03  1.1335471161632474e-01  1.4312974650476796e-03  2.1930968989859609e-05  8.0408000776800090e-03  2.1041859880895238e-04  2.1034457720174956e-04  7.9693808588690522e-05  5.8542573981685219e-04  3.1727744386010531e-01  7.8373694474582223e-07  3.1588913409968153e-02  3.0809645203930464e-06  1.4462121987126916e-02  9.1264064584881434e-03  7.3715929506771780e-04  1.1918278261739849e-06  9.7218925786957233e-02  6.6339788570074433e-04  -1.1226179822622501e-03  4.8759943608654233e-03  1.8983235258807021e-06  2.2252025194131071e-02  2.2087827785246462e-06  3.8544729666919051e-05  1.3701725700638587e-04  1.4171849992467113e-06  1.1636245240706725e-04  1.3554677366601160e-05  1.3776610371515835e-05  1.7237939607971852e-03  -1.7696053230948115e-02  1.9356780715485966e-02  1.2650422061354102e-06  6.9633430148193037e-02  9.0609159634875546e-03  1.9716900139724686e-05  1.8053457919699591e-04  3.1336524589058634e-04  1.4575723594623891e-04  6.8919132639180626e-05  3.6834549183860312e-06  -2.5755845346835038e-03  1.6837568875147071e-03  1.1585643297174277e-06  3.3232521388922659e-02  5.2361251122499156e-07  3.3196667610833004e-06  2.1602841759613906e-06  1.3311241090118192e-01  1.6350077135380023e-01  3.7219181567177774e-02  1.8137939714904094e-06  2.1603769590222643e-06  1.3220702385496268e-06  -5.2233800188997764e-03  -2.4523609446343666e-03  -7.7900726566947895e-02  -5.4781964735231159e-01  1.5343060945189408e-06  4.1991205212848406e-06  7.8909464974753927e-06  2.3367720045519355e-06  2.6857799983260076e-06  1.9596026817238309e-06  3.2309131363724354e-06  -9.4593407753041923e-05  1.9560139801479604e-06  2.5839296267225684e+00  1.5087082663016019e-06  4.5348201748138606e-01  3.0124739033053810e-01  -1.2432779093430159e-02  -4.3558365433997742e-02  -2.2429287341084934e-02  -3.3711028874483967e-04  3.3336281833837707e-06  8.1137435439831795e-01  -7.8128037601101263e-01  -1.9234672882044275e+00  1.7226173559123776e+00  3.4697426289122610e+00  5.9569934867118938e-05  4.0262731409867851e-04  1.0513134691890334e-06  5.7370782474816789e-03  2.6523085651846257e-06  5.1358242264283228e-07  2.0729837141354494e-06  1.0588761052609922e-06  8.2461210603229344e-07  1.3241674681536646e-06  9.0953990594919952e-03  4.1060406131058201e-04  1.3779842602011473e-04  -1.0846698884080263e-04  4.8720082712333408e-06  2.5416181377732165e-06  3.7241047910403758e-04  1.5405602408005462e-04  -4.1808990071821574e-02  1.6441267757670859e-03  9.8108772131327273e-06  -1.0014431473464888e-02  1.2814904426679961e-02  1.6586942324197232e-02  3.7448632805328393e-06  -4.2525929275193657e-02  3.2745975416013919e-06  -3.6821336179522421e-02  2.6967782098618063e-06  8.3104686040549238e-03  1.8795194104672736e-06  2.6780613416164983e-02  4.9792895995611073e-05  1.8532584839158393e-05  1.0874189279384990e-05  3.4104176381757350e-06  3.4026215146385529e-06  2.0594805784799849e-05  -3.1307717133133757e+00  -4.1373459591792514e+00  1.0764938476994982e-06  4.8434651561459308e-06  1.2194836609698113e-05  3.0424483907013841e-03  1.3487581050465863e-03  5.0531845467766080e-03  2.9614244840281782e-05  -1.7462565263178101e-01  -1.1412230322030034e-01  3.3715511062831338e-06  4.2526821284804181e-05  1.3191379212711405e-03  3.1366425807123556e-04  4.3788832166865244e-01  -2.8307783559042426e-01  2.4843918619204697e-03  4.1237815926156596e-03  3.1830992142103216e-06  4.8553568875331547e-05  9.3540363767218393e-06  3.0037818314812867e-03  2.2775583674665875e-01  1.7078226265312577e-01  -7.8814588239116301e-02  8.0872106432574267e-02  5.6443005421400863e-02  3.2725682814933305e-06  4.6750447672881124e-01  -4.2784934799108849e-03  6.2358741334514160e-07  6.1859145099231086e-02  1.7891722938124452e-01  1.6069920210881230e-06  -1.0625795011686638e-03  9.2187869799318470e-07  1.4567922867499939e-04  7.3002489470385540e-04  3.8406213483565242e-04  3.5243709031404204e-04  1.4224719170039887e-06  2.4896827242544085e-06  -6.6220618396830674e-02  2.4742129748854409e-05  9.4449278467641361e-07  7.4666287887107966e-06  4.9074934023131807e+00  4.1178452297342013e-05  1.0338678735152497e-03  2.3140110883955356e-04  1.2580973295941956e-04  8.9736774890361711e-05  1.0123604862465578e-06  -4.6961385728630755e-04  1.3237658768075410e-03  2.1758436779848650e-01  4.7173732541440483e-01  3.5447739428793213e-04  1.4884221654514341e-04  3.5857174534713229e-06  3.2500455811023210e-06  5.1116831079770040e-04  3.9373905206740681e-06  1.9023166423376645e-01  1.0477267710243328e+00  6.7477750755499432e-03  9.2316988158859263e-07  1.1613056891552309e+00  -1.2076038439829049e-02  -2.0422053180004701e-01  3.1563846091671148e-07  1.4920836558122252e-06  1.1595467955320478e-03  3.4671406506564395e-01  -8.6654656069294372e-02  9.4951541388896895e-05  8.5115193736537902e-07  -3.7252357259044545e-03  -3.3517073709056189e-03  2.7825461024383186e-06  1.6864120380848410e-06  1.4928234996703979e-04  3.5109331912173079e-06  1.1555344528160559e-06  3.3106618144842916e-06  -1.5002395409094024e-05  6.8060604407857761e-01  9.6695950191517692e-07  3.4531922090655483e-02  4.4712446693318165e-06  4.4137157556306339e-01  5.4087698884885083e-05  1.7851261811025082e-06  1.9526832179623997e-05  9.0590576858457327e-07  1.2022073346743612e-02  1.2221360659492832e-01  -1.9315628360993795e-02  5.2852401176255517e-04  -8.2027636549140796e-03  -4.8176706816980500e-04  2.4360534793649664e-06  8.3961989397096533e-06  1.9137100242337848e-06  -1.2453666903348180e-02  2.8352906455318563e-06  5.1670584689324339e-02  1.3285064394927028e-03  1.7194938828213243e-04  2.5828511801827840e+00  1.4820082676953426e+00  5.6722430020711881e-02  1.8075155449207245e-01  5.6511029549176373e-01  3.0389683268425120e-02  8.5204444254277259e-07  2.6795751862566261e-06  3.4267355193759457e-03  1.2155949590219568e-05  3.4480336673898377e-05  3.3234491192179840e-05  1.5826123215453592e-06  5.5997326824712207e-04  2.6996937662110567e-06  1.7241744244800048e-06  2.6015142253838219e-03  2.6434368793768669e-04  3.5578705698083144e-04  -6.3282392361385638e-03  4.4975959629740270e-03  7.3572873607023603e-01  4.4143646913348050e-01  7.1420991030499382e-03  4.0336876619747984e-04  6.9685418088528072e-04  9.7740618087449396e-05  5.9546854695832199e-04  4.7291576911656831e-04  1.6122684130691161e-04  1.6158521092991848e-01  5.3354956924566509e-02  5.5242915790626526e-03  7.4276803370508723e-03  1.9425174473483822e-05  6.3236768687984068e-01  4.4288662541309198e-06  -1.5493995650738535e-03  6.0556770002924800e-04  -8.5828716383102964e-05  1.4122943688030669e+00  2.0213890830000942e-06  6.0043254800158187e-02  5.7105364573522763e-04  8.0914410508596112e-03  1.2790245418639043e-01  1.0974209067447898e-06  5.7288828752416286e-03  3.0013290320492963e-06  -6.1970537590168720e-03  1.5558982820314296e-01  2.0323750165403724e-02  -1.0749214601542748e-02  2.3610931998892886e-06  8.4804015795707495e-06  -2.3682697831511924e-03  8.3417032528133105e-06  1.3840517120381674e-03  3.4134882289735984e-06  4.4996192156041530e-06  -2.8823483520162428e-03  8.4571693975299178e-02  5.7008816355956108e-07  1.4764931217263004e-06  2.9411726458030479e-01  2.3217435629822474e-03  1.0623467803169960e-03  1.1822265788204920e-02  1.0647609399515588e-02  9.8004079163567004e-01  1.5892632449158006e-01  3.6231584560517938e-01  4.3855567190728362e+00  2.3267513691730598e-06  7.9032502159857362e-07  1.6070773632855289e-06  3.0537416111471380e-06  5.6134003709563387e-03  -2.4486404690938178e-04  -3.1282174024962446e-05  3.5086148336359644e-05  4.6993981268491405e-05  4.9816168268284089e-06  2.2553845607778172e-06  5.0443609078512240e-04  3.5416906434213357e-06  3.3596877994818170e-06  8.8903288297599234e-02  5.1915913829097418e-07  2.9127771654840145e-06  -3.0827380137332303e-02  3.9017050660454153e-04  1.5704038408941947e-06  9.7840807708818460e-07  1.0107103966877691e-01  1.2300396250490682e-01  1.4799514217815366e-06  8.4909168708036597e-04  9.1644094796245346e-04  1.9638955203504389e-06  2.1420423772222568e-04  1.9179859732802197e-04  1.9187234487701180e-06  8.4852781814730265e-03  -4.4714743399694060e-06  9.2579370898866843e-07  -1.2964242103767117e-02  -2.1987206330169852e-02  -8.5583546785197059e-05  9.0264211041737703e-05  -8.0653289011303024e-03  1.4525082940976248e-04  1.6629293683356445e-05  6.3895682507578242e-05  2.8793758310697642e-06  2.7932546280264339e-06  2.5018505688507844e-06  3.3910743810568708e-06  3.3572401630339524e-06  2.6303591134284393e-01  7.2935445492967610e-01  7.1972037009048891e-07  1.2277871248585283e-06  5.6609566241747572e-06  9.8109459390154544e-07  7.7424944437808696e-07  4.6263155040514954e-07  -3.4348440420206865e+00  -5.0203137238757733e+00  -1.9866528683549036e+00  -2.6588867648491901e-04  1.0064491749473772e-06  1.5298232002258019e-02  6.2389736874085435e-07  2.9883863872586982e-02  5.1305801731472374e-07  2.0484086179264765e-02  -1.3763563848730761e-02  -4.5569607192784021e-03  2.9528798986253427e-06  8.7169755744086273e-04  6.0486895676360351e-04  2.3757461203374705e-01  2.5951869401395516e-01  2.4292857256288669e-06  1.4663833364016918e-06  7.1374690719257236e-07  4.0270773471758989e-02  1.9571945412714294e-02  1.2049018050015859e-07  1.9127465174235179e-05  9.3156723866746752e-04  4.2237361944965149e-04  2.6886951545212605e-05  -1.8494623379319275e-04  5.0177364848825188e-05  9.6211583064575368e-07  7.8626645100265032e-07  9.3410870861273052e-07  2.7120127112015524e-06  6.9039051521822662e-04  -1.1910457699985494e-06  3.5742393987451705e-06  3.5865602532700835e-06  1.6136965060109986e-02  2.8267754227569468e-04  -2.1253477484913557e+00  -8.9789972112602398e-04  1.0173709494061094e-05  8.8722336749808494e-04  8.5244443947847897e-05  6.4686748891547459e-04  3.8524768248188739e-06  -3.1100465616970545e-02  -6.2126977086691557e-02  -1.6087979630019511e-02  -2.4950264868820948e+00  -5.8856429791108433e-01  -1.4094903259764830e+00  7.8057473523450386e-07  9.0539059660449885e-07  8.8393837182120340e-07  3.1395005414975365e-06  9.7225570463018141e-06  1.4731114270990912e-05  3.1794177748568342e-01  1.9411014473435919e-06  -1.4564980374242581e-02  1.7428800612547096e-06  2.4704843119684815e-02  3.5023257275297847e-05  -1.2593705474571327e-02  -2.4210062956803311e-02  3.2332863782467348e-05  -5.3258057658681923e-01  2.2517592573209578e-06  3.6777980653143988e-01  2.6218983026668374e-01  8.8315416191677120e-05  1.9512230801422904e-05  1.8021443749825677e-03  7.8735551058353523e-07  1.3205057756245779e-02  2.9796731510695568e-06  1.1126312202944320e-01  -2.4666528428315664e-03  -1.1674753140750108e-06  3.2814819130705915e-06  7.9187140955186021e-07  2.3758352522815734e-06  -3.2437287763600359e-01  -4.0125131410758357e+00  -9.4252955638775526e-01  -1.7344775709501128e-02  7.8171492943922260e-07  7