<?xml version="1.0"?>
<VTKFile type="UnstructuredGrid"  version="0.1"  >
<UnstructuredGrid>
<Piece  NumberOfPoints="2954" NumberOfCells="5142">
<Points>
<DataArray  type="Float64"  NumberOfComponents="3"  format="ascii">-20 2.5 0  -20 0 0  -1 0 0  -0.9996988186962042 0.02454122852291233 0  -0.9987954562051724 0.04906767432741797 0  -0.9972904566786902 0.07356456359966773 0  -0.9951847266721968 0.09801714032956083 0  -0.99247953459871 0.1224106751992163 0  -0.989176509964781 0.1467304744553618 0  -0.9852776423889412 0.1709618887603012 0  -0.9807852804032304 0.1950903220161286 0  -0.9757021300385285 0.21910124015687 0  -0.970031253194544 0.2429801799032641 0  -0.9637760657954398 0.2667127574748985 0  -0.9569403357322088 0.2902846772544624 0  -0.9495281805930367 0.3136817403988914 0  -0.9415440651830207 0.3368898533922203 0  -0.9329927988347388 0.3598950365349883 0  -0.9238795325112867 0.3826834323650899 0  -0.9142097557035307 0.4052413140049899 0  -0.9039892931234433 0.427555093430282 0  -0.8932243011955152 0.4496113296546069 0  -0.8819212643483549 0.4713967368259979 0  -0.8700869911087113 0.4928981922297841 0  -0.857728610000272 0.5141027441932218 0  -0.8448535652497071 0.5349976198870972 0  -0.8314696123025453 0.5555702330196022 0  -0.8175848131515836 0.5758081914178454 0  -0.8032075314806448 0.5956993044924335 0  -0.7883464276266062 0.6152315905806269 0  -0.773010453362737 0.6343932841636455 0  -0.7572088465064846 0.6531728429537766 0  -0.7409511253549589 0.6715589548470186 0  -0.7242470829514668 0.6895405447370671 0  -0.7071067811865475 0.7071067811865476 0  -0.6895405447370669 0.7242470829514669 0  -0.6715589548470184 0.740951125354959 0  -0.6531728429537765 0.7572088465064847 0  -0.6343932841636454 0.7730104533627371 0  -0.6152315905806267 0.7883464276266063 0  -0.5956993044924334 0.8032075314806449 0  -0.5758081914178453 0.8175848131515837 0  -0.555570233019602 0.8314696123025455 0  -0.534997619887097 0.8448535652497072 0  -0.5141027441932217 0.8577286100002721 0  -0.492898192229784 0.8700869911087115 0  -0.4713967368259977 0.881921264348355 0  -0.4496113296546067 0.8932243011955152 0  -0.4275550934302819 0.9039892931234434 0  -0.4052413140049897 0.9142097557035307 0  -0.3826834323650897 0.9238795325112867 0  -0.3598950365349882 0.9329927988347388 0  -0.3368898533922199 0.9415440651830208 0  -0.3136817403988914 0.9495281805930367 0  -0.2902846772544622 0.9569403357322089 0  -0.2667127574748983 0.9637760657954398 0  -0.2429801799032639 0.970031253194544 0  -0.2191012401568697 0.9757021300385286 0  -0.1950903220161282 0.9807852804032304 0  -0.1709618887603012 0.9852776423889412 0  -0.1467304744553616 0.989176509964781 0  -0.1224106751992162 0.99247953459871 0  -0.09801714032956065 0.9951847266721969 0  -0.07356456359966733 0.9972904566786902 0  -0.04906767432741801 0.9987954562051724 0  -0.02454122852291214 0.9996988186962042 0  6.123233995736766e-17 1 0  0.02454122852291226 0.9996988186962042 0  0.04906767432741813 0.9987954562051724 0  0.07356456359966745 0.9972904566786902 0  0.09801714032956077 0.9951847266721968 0  0.1224106751992163 0.99247953459871 0  0.1467304744553617 0.989176509964781 0  0.1709618887603014 0.9852776423889412 0  0.1950903220161283 0.9807852804032304 0  0.2191012401568698 0.9757021300385286 0  0.242980179903264 0.970031253194544 0  0.2667127574748984 0.9637760657954398 0  0.2902846772544623 0.9569403357322089 0  0.3136817403988916 0.9495281805930367 0  0.3368898533922201 0.9415440651830208 0  0.3598950365349883 0.9329927988347388 0  0.3826834323650898 0.9238795325112867 0  0.4052413140049899 0.9142097557035307 0  0.4275550934302822 0.9039892931234433 0  0.4496113296546066 0.8932243011955153 0  0.4713967368259978 0.8819212643483549 0  0.4928981922297841 0.8700869911087113 0  0.5141027441932217 0.8577286100002721 0  0.5349976198870973 0.844853565249707 0  0.5555702330196023 0.8314696123025452 0  0.5758081914178453 0.8175848131515837 0  0.5956993044924335 0.8032075314806448 0  0.6152315905806268 0.7883464276266062 0  0.6343932841636455 0.773010453362737 0  0.6531728429537768 0.7572088465064845 0  0.6715589548470183 0.7409511253549591 0  0.6895405447370669 0.7242470829514669 0  0.7071067811865476 0.7071067811865475 0  0.724247082951467 0.6895405447370668 0  0.7409511253549591 0.6715589548470183 0  0.7572088465064846 0.6531728429537768 0  0.773010453362737 0.6343932841636455 0  0.7883464276266063 0.6152315905806268 0  0.8032075314806449 0.5956993044924334 0  0.8175848131515837 0.5758081914178453 0  0.8314696123025452 0.5555702330196022 0  0.8448535652497071 0.5349976198870972 0  0.8577286100002721 0.5141027441932217 0  0.8700869911087115 0.492898192229784 0  0.881921264348355 0.4713967368259976 0  0.8932243011955153 0.4496113296546065 0  0.9039892931234433 0.4275550934302821 0  0.9142097557035307 0.4052413140049899 0  0.9238795325112867 0.3826834323650898 0  0.932992798834739 0.3598950365349881 0  0.9415440651830208 0.3368898533922201 0  0.9495281805930367 0.3136817403988915 0  0.9569403357322088 0.2902846772544623 0  0.9637760657954398 0.2667127574748984 0  0.970031253194544 0.2429801799032639 0  0.9757021300385286 0.2191012401568698 0  0.9807852804032304 0.1950903220161282 0  0.9852776423889412 0.1709618887603012 0  0.989176509964781 0.1467304744553617 0  0.99247953459871 0.1224106751992162 0  0.9951847266721969 0.0980171403295606 0  0.9972904566786902 0.07356456359966743 0  0.9987954562051724 0.04906767432741801 0  0.9996988186962042 0.02454122852291229 0  1 0 0  20 0 0  20 2.5 0  0 2.5 0  -10 2.5 0  10 2.5 0  -10.5 0 0  -5 2.5 0  10.5 0 0  5 2.5 0  -5.75 0 0  5.75 0 0  -15.25 0 0  -15 2.5 0  15.25 0 0  15 2.5 0  -17.625 0 0  -17.5 2.5 0  17.5 2.5 0  17.625 0 0  12.5 2.5 0  12.875 0 0  -12.5 2.5 0  -12.875 0 0  -2.5 2.5 0  2.5 2.5 0  -8.125 0 0  -7.5 2.5 0  8.125 0 0  7.5 2.5 0  -3.375 0 0  3.375 0 0  -18.75 2.5 0  20 1.25 0  16.4375 1.19375 0  -16.25 2.5 0  13.75 2.5 0  -14.0625 0 0  -11.6875 0 0  11.6875 0 0  8.75 2.5 0  -8.75 2.5 0  6.9375 0 0  6.25 2.5 0  -6.25 2.5 0  -9.3125 0 0  -6.9375 0 0  9.3125 0 0  11.25 2.5 0  -11.25 2.5 0  3.75 2.5 0  4.5625 0 0  -4.5625 0 0  -3.75 2.5 0  -13.75 2.5 0  14.0625 0 0  -16.4375 0 0  -20 1.25 0  -18.8125 0 0  18.75 2.5 0  -18.21875 1.2359375 0  18.125 1.278125 0  -15.84375 1.2125 0  -14.375 1.30859375 0  14.65625 1.203125 0  2.1875 0 0  -2.1875 0 0  13.125 1.315625 0  3.125 1.315625 0  -3.125 1.315625 0  -12.28125 1.1890625 0  -5.15625 1.184375 0  11.09375 1.184375 0  5.625 1.325 0  -10.97262068800044 1.220713793599868 0  9.375 1.32734375 0  -6.875 1.32734375 0  -9.67626828410207 1.24449497187193 0  8.061334925608099 1.312208731402025 0  -8.188665074391901 1.312208731402025 0  -1.25 2.5 0  1.25 2.5 0  4.37465139623265 1.41327350462657 0  16.25 2.5 0  6.84375467392576 1.430449641528851 0  -1.846573640185365 1.334702047669377 0  1.846573640185365 1.334702047669377 0  -17.02955351149946 1.396129584721571 0  16.4375 0 0  18.8125 0 0  -13.31314667860176 1.511193493282891 0  -4.122005747945582 0.961844908681634 0  12.12799425205442 0.961844908681634 0  15.54930641305724 1.660405980876393 0  19.0578783583929 0.9559530595267438 0  8.71875 0.6864560603786576 0  -7.53125 0.6864560603786576 0  -0.6257799091428727 1.819008129832856 0  0.6257799091428734 1.819008129832855 0  6.291331569065717 0.7194652423646902 0  -19.11204717950418 0.9044926794710327 0  -4.488713231834613 1.772186102355655 0  11.76128676816539 1.772186102355655 0  -19.28185607205105 1.781856072051052 0  19.30868080343342 1.808680803433421 0  9.90625 0.6371857066656857 0  -6.34375 0.6371857066656857 0  3.796921710049233 0.7617406159238448 0  7.392020585015773 0.7480839107774819 0  -8.910372062800235 0.7929553447587234 0  10.2506781820361 1.451853913138859 0  -5.999321817963904 1.451853913138859 0  4.957643119381741 0.7716423099297361 0  17.29984375 0.8640625 0  15.41193625859067 0.8279888354083842 0  -13.72251704931534 0.7728002662082776 0  16.875 2.5 0  17.12178336313261 1.690954734835967 0  -11.64001625260176 1.74572103154608 0  2.477726735235857 0.7850262278604345 0  13.46875 0 0  13.765625 0.7802887470308788 0  -2.78125 0 0  -2.477726735235857 0.7850262278604346 0  -10.33383379274331 1.744431431923121 0  13.91957519050334 1.653419259628842 0  -15.08147780274903 0.8341506893754731 0  -15.14066649024666 1.671962869821843 0  -8.950686484882164 1.678622661163363 0  -17.55392917606836 0.794731598412167 0  -16.80247533599675 0.6688259240674158 0  -12.94289066923278 0.7766744225472476 0  -9.90625 0 0  -10.31601468672093 0.7730817089126454 0  -18.21875 0 0  -12.28125 0 0  -17.68515668569534 1.768907656575843 0  18.21875 0 0  10.85059123027421 1.880344717307101 0  -5.399408769725794 1.880344717307101 0  -3.738137326223278 1.749164834446819 0  -3.125 2.5 0  12.46235897590077 1.601301060091387 0  -11.09375 0 0  -11.61661448001209 0.7781698802173554 0  -15.625 2.5 0  -1.764022608759088 0.6027229563180789 0  1.59375 0 0  -8.125 2.5 0  8.125 2.5 0  8.713468311289519 1.727645658498745 0  9.375 2.5 0  -7.536531688710481 1.727645658498745 0  -6.875 2.5 0  14.375 2.5 0  17.78381794101733 1.874391370085592 0  18.59891476281433 1.80649740393129 0  -18.58835555265984 1.824268641341969 0  1.806126122135773 0.6510673837470153 0  -16.875 2.5 0  -16.36681393636619 1.755298393865037 0  -16.13072438662071 0.6014017614895231 0  -13.92460230791385 1.83195710210235 0  -14.40198779087891 0.6105385965811564 0  20 0.625 0  19.40625 0 0  14.6875 1.888836596385542 0  14.65625 0 0  12.78248197181444 0.6991460920542635 0  -3.467518028185561 0.6991460920542635 0  13.125 2.5 0  2.491957142932539 1.738660596534321 0  3.125 2.5 0  1.875 2.5 0  3.718973573227002 1.75927763286174 0  -2.491957142932539 1.738660596534321 0  -1.875 2.5 0  -9.375 2.5 0  6.2001972846108 1.772767401802766 0  5.625 2.5 0  5.027483518098582 1.760895488350309 0  5.625981449127788 0.6566963631252629 0  -12.30101114679273 1.859484693920165 0  9.742489932362783 1.884363450023167 0  -6.507510067637216 1.884363450023166 0  1.13492303295015 1.283502262067074
[...]
<PointData  Scalars="f_8795"> 
<DataArray  type="Float64"  Name="f_8795"  format="ascii">1.0000098927730363e+00  9.9999750561068190e-01  9.9991574526622917e-01  9.9995386363094918e-01  9.9999046061511798e-01  1.0000006181187586e+00  9.9999840111024563e-01  9.9998517733013770e-01  9.9998339233366107e-01  9.9999522269330221e-01  1.0000014517594669e+00  9.9999989650342624e-01  9.9999878258599395e-01  9.9999852915932907e-01  9.9999039944144585e-01  9.9999778425517050e-01  9.9999765289881448e-01  9.9999595996745871e-01  9.9998340680665143e-01  9.9999820486186231e-01  9.9999334182282229e-01  9.9999288871375236e-01  9.9999373725927432e-01  9.9999340407886228e-01  9.9998953799597912e-01  9.9998503869774746e-01  9.9999412635471507e-01  9.9998396849696503e-01  9.9999055272920845e-01  9.9997864799035963e-01  9.9998545733810362e-01  9.9998892421981000e-01  9.9998803543845516e-01  9.9999443787796671e-01  9.9998721729267770e-01  9.9998960665428094e-01  9.9999183753321275e-01  9.9998837747750979e-01  9.9999323404329488e-01  9.9998202072006681e-01  9.9999428597716467e-01  9.9999157736683453e-01  9.9999265822629702e-01  9.9998769686365763e-01  9.9998594301949029e-01  9.9999093196513655e-01  9.9999436792688268e-01  9.9999344689997594e-01  9.9999147404602828e-01  9.9999172563280880e-01  9.9999282936678580e-01  9.9998696792083941e-01  9.9999075629322787e-01  9.9999332725171897e-01  9.9999196213815778e-01  9.9999009755554313e-01  9.9999581704278639e-01  9.9999350666156062e-01  9.9999437142393133e-01  9.9999808672692736e-01  9.9999570676890981e-01  9.9999445163752831e-01  9.9999157764077751e-01  9.9999711029845773e-01  9.9999425697511013e-01  9.9999214111143053e-01  9.9999095671331983e-01  9.9999652615358159e-01  9.9999533505405336e-01  9.9999958900542807e-01  9.9999965043399242e-01  9.9999367820072094e-01  1.0000011096971220e+00  1.0000016496088768e+00  1.0000022113512115e+00  9.9999220835811553e-01  1.0000008636985145e+00  9.9998701447906746e-01  9.9999763747667791e-01  9.9999413308538343e-01  1.0000019711229204e+00  9.9999732059586799e-01  1.0000029059500792e+00  9.9999417989037398e-01  1.0000030632233168e+00  1.0000048914072046e+00  9.9999971454884562e-01  1.0000017533992398e+00  1.0000041698177133e+00  1.0000023572696024e+00  1.0000045512875446e+00  9.9999837229437205e-01  1.0000040253574993e+00  9.9999798092732006e-01  9.9998812162056983e-01  9.9999293170224690e-01  1.0000022927563859e+00  1.0000052754935491e+00  9.9999811141164185e-01  1.0000021711297895e+00  9.9999158434606150e-01  1.0000014894706251e+00  1.0000018209250152e+00  1.0000035330776986e+00  9.9999546213604529e-01  1.0000016719031306e+00  9.9999675930393872e-01  1.0000004439806593e+00  9.9999487750560256e-01  9.9999873797715422e-01  1.0000020087217016e+00  9.9998621650443775e-01  9.9999004294322469e-01  9.9998738381234586e-01  9.9999495725509102e-01  9.9999450900821463e-01  9.9999928135170801e-01  1.0000004333252575e+00  9.9999675950523415e-01  9.9999717545672195e-01  9.9999771190868669e-01  9.9999106489362877e-01  9.9999632516945480e-01  9.9999969845776349e-01  1.0000014781096058e+00  9.9999887628781148e-01  9.9999754762879700e-01  9.9999878191236147e-01  9.9999876201683546e-01  9.9999721643204242e-01  9.9999148087869671e-01  9.9999997806124230e-01  9.9999799014149471e-01  9.9999943527642232e-01  9.9999909522916686e-01  9.9999902455783629e-01  9.9999789260828198e-01  1.0000000072691517e+00  1.0000038424213200e+00  1.0000013347848429e+00  1.0000034289265693e+00  9.9999755271945978e-01  9.9999799309556725e-01  9.9999965752204412e-01  1.0000003764214851e+00  9.9999951611965998e-01  1.0000041094581922e+00  9.9999674737629174e-01  9.9999743229614091e-01  9.9999611488811291e-01  9.9999959714320030e-01  9.9999770349204542e-01  9.9999929803043908e-01  9.9999991866824034e-01  9.9999953513334383e-01  1.0000026105051036e+00  9.9999762567045736e-01  1.0000037654258793e+00  9.9999658654834667e-01  9.9999915050611476e-01  9.9999970877401190e-01  9.9999973692178068e-01  9.9999984566786293e-01  9.9999462008075291e-01  1.0000001712703330e+00  9.9999926789793858e-01  1.0000003344605053e+00  9.9999897645049873e-01  9.9999991318306258e-01  9.9999921116379020e-01  9.9999807463657375e-01  9.9999929661731946e-01  1.0000011016297978e+00  1.0000008292350591e+00  9.9999955630444226e-01  1.0000007049692095e+00  9.9999887351616323e-01  9.9999966499761994e-01  9.9999999862733990e-01  9.9999837212987552e-01  9.9999907645162833e-01  9.9999886996699472e-01  9.9999885694847279e-01  1.0000000850866340e+00  9.9999828825340420e-01  1.0000006159804000e+00  1.0000005252758728e+00  1.0000015561486146e+00  9.9999999321565158e-01  9.9999939424370310e-01  9.9999826360524002e-01  1.0000005383013242e+00  9.9999951889619898e-01  9.9999731317233320e-01  9.9999954495896926e-01  9.9999846459794406e-01  9.9999853081785406e-01  9.9999953425284416e-01  9.9999997518863337e-01  9.9999880094166904e-01  9.9999923049152983e-01  9.9999833103462632e-01  9.9999909978712664e-01  9.9999989871001804e-01  9.9999938048268688e-01  9.9999944456994794e-01  9.9999994948215376e-01  9.9999932812064718e-01  9.9999942437252287e-01  9.9999903649639221e-01  1.0000008171974419e+00  9.9999941668735104e-01  9.9999901225201171e-01  9.9999943575362604e-01  9.9999979020521101e-01  9.9999921514771373e-01  9.9999912326023011e-01  9.9999968996672561e-01  1.0000031913019476e+00  9.9999964169667321e-01  9.9999792503108886e-01  9.9999898075158677e-01  9.9999865350645334e-01  9.9999903797131373e-01  9.9999935621615010e-01  9.9999794710604306e-01  9.9999898427286538e-01  9.9999900031252720e-01  9.9999954017645898e-01  1.0000012584636333e+00  9.9999979080791790e-01  9.9999921465561226e-01  9.9999783815103838e-01  9.9999950937257143e-01  9.9999854420621515e-01  9.9999981682603589e-01  9.9999973587400115e-01  9.9999806103062683e-01  1.0000004283086790e+00  9.9999894124495803e-01  9.9999936869302875e-01  1.0000004241021592e+00  1.0000009033802528e+00  9.9999921407251680e-01  9.9999998034056226e-01  9.9999753622194354e-01  9.9999718963505924e-01  9.9999702559267056e-01  9.9999972126289016e-01  9.9999952920289048e-01  9.9999946361074177e-01  9.9999980572194602e-01  9.9999789488744750e-01  9.9999793987392172e-01  9.9999914481574503e-01  9.9999991623916507e-01  9.9999948464572141e-01  9.9999940496457840e-01  9.9999984527502539e-01  9.9999564576474986e-01  1.0000006302375080e+00  9.9999863376115283e-01  9.9999905610376461e-01  9.9999865449366332e-01  9.9999083543555356e-01  9.9999919364942869e-01  9.9999931377159779e-01  9.9999588473817369e-01  9.9999850653335265e-01  9.9999995361465521e-01  9.9999937539365913e-01  9.9999658417991322e-01  9.9999919558983352e-01  9.9999928027863816e-01  9.9999929362566509e-01  9.9999929531001097e-01  9.9999974716920859e-01  9.9999906750478329e-01  9.9999977203983059e-01  1.0000082717382623e+00  1.0000020366735809e+00  9.9999794501931505e-01  9.9999943501466726e-01  1.0000034859118692e+00  1.0000003965638389e+00  1.0000019164808647e+00  9.9999844349386957e-01  9.9999960804517207e-01  9.9999983371634782e-01  9.9999779405843281e-01  1.0000003429230186e+00  9.9999923734412099e-01  9.9999794567232336e-01  9.9999638388283996e-01  9.9999675330487292e-01  9.9999879266932512e-01  9.9999872545146140e-01  1.0000005617458900e+00  9.9999871446036936e-01  9.9999867657260044e-01  9.9999861462713646e-01  9.9999943283082071e-01  9.9997442863359309e-01  9.9999853806874928e-01  1.0000054735625585e+00  9.9999759472945471e-01  9.9999883981806881e-01  9.9999936902276354e-01  9.9999959855285736e-01  9.9999953150703669e-01  1.0000002099419576e+00  9.9999924360886350e-01  9.9999973712989454e-01  9.9999926054349597e-01  1.0000006745255658e+00  9.9999864871731925e-01  9.9999956592416273e-01  1.0000005674018611e+00  9.9999982635780293e-01  1.0000004695810853e+00  9.9999921383529444e-01  1.0000002881192549e+00  9.9999976859285666e-01  9.9999982285591837e-01  1.0000007189425946e+00  9.9999979589042187e-01  9.9999926978137199e-01  9.9999971281785427e-01  9.9999884327232669e-01  9.9999913807118346e-01  9.9999939948340799e-01  9.9999789992286869e-01  9.9999947551625779e-01  9.9999938335792637e-01  9.9999897977801122e-01  9.9999740148105198e-01  9.9999782050130825e-01  9.9999558117235765e-01  9.9999695308952063e-01  9.9999973650567553e-01  1.0000002206130800e+00  1.0000000530585351e+00  9.9999971679673449e-01  1.0000023221414662e+00  9.9999879997261143e-01  9.9999676648591407e-01  9.9999922815841502e-01  1.0000001098559808e+00  1.0000000310790003e+00  9.9999654694831175e-01  1.0000001164859276e+00  1.0000012806582901e+00  9.9999833395185611e-01  9.9999880655142637e-01  1.0000049715883741e+00  9.9999827190746615e-01  9.9999953412439091e-01  9.9999828375590993e-01  9.9999952535967263e-01  9.9999928188892839e-01  9.9999902596224932e-01  1.0000000055618494e+00  9.9998812315685759e-01  9.9998779833593865e-01  1.0000001865769212e+00  9.9999901484145493e-01  9.9999984972182365e-01  1.0000035841037977e+00  9.9999956842369875e-01  9.9999989208065232e-01  9.9999866059746523e-01  9.9999870419640946e-01  9.9999949260724530e-01  9.9999973289397126e-01  1.0000006400155914e+00  9.9999956410894597e-01  1.0000002757457942e+00  9.9999684512389053e-01  1.0000005455914920e+00  9.9999956645676735e-01  1.0000010518357121e+00  9.9999846147808413e-01  9.9999621436715824e-01  1.0000010768877270e+00  9.9999863642219022e-01  9.9999890678230685e-01  9.9999542665571128e-01  9.9999192005656656e-01  9.9999952996874875e-01  9.9999896046848302e-01  9.9999935250993932e-01  9.9999994061476882e-01  1.0000004181436024e+00  9.9999956078263430e-01  9.9999901493637744e-01  9.9999877225422784e-01  1.0000015284846546e+00  9.9999978134980438e-01  1.0000026517881762e+00  1.0000002760753102e+00  9.9999742269013348e-01  1.0000004844369208e+00  9.9999952698480410e-01  1.0000001589127188e+00  1.0000006596623983e+00  9.9999781055780157e-01  9.9999984088764315e-01  9.9999907579164160e-01  9.9999982677791399e-01  9.9999984959126986e-01  1.0000003178188652e+00  9.9999985447589546e-01  9.9999831744369672e-01  1.0000008557969038e+00  1.0000005498277540e+00  1.0000011158770983e+00  1.0000011134523223e+00  9.9999868238779932e-01  1.0000011342276280e+00  9.9999998824263625e-01  9.9999897157117201e-01  9.9999938105994346e-01  9.9999927711284120e-01  9.9999962647259732e-01  9.9999920158859013e-01  9.9999813010872673e-01  9.9999841700359404e-01  9.9999978068426554e-01  9.9999920757732308e-01  9.9999872565949788e-01  9.9999959071417999e-01  9.9999913866166590e-01  9.9999914746156171e-01  9.9999927393300403e-01  9.9999926971912945e-01  9.9999950322153497e-01  9.9999944122452611e-01  1.0000001034716639e+00  9.9999992053608866e-01  1.0000000416855817e+00  9.9999917633835245e-01  9.9999960617073369e-01  9.9999952515420754e-01  9.9999970606738842e-01  9.9999995980045753e-01  9.9999926067069533e-01  9.9999913518348060e-01  9.9999990867529176e-01  9.9999913560957221e-01  9.9999874442977899e-01  1.0000000415170238e+00  9.9999901457148954e-01  9.9999875540497718e-01  9.9999872559305869e-01  9.9999738246858005e-01  9.9999925410221702e-01  9.9999976240477817e-01  9.9999912844466321e-01  9.9999890058215701e-01  9.9999938546894096e-01  9.9999932572089467e-01  9.9998272960173051e-01  1.0000001091309136e+00  9.9999967925138478e-01  9.9999963713808426e-01  9.9999812451978765e-01  9.9999810936527900e-01  1.0000032456975878e+00  1.0000031767772040e+00  9.9999986515203521e-01  1.0000008088526058e+00  9.9999908927198056e-01  9.9999767068261680e-01  9.9999986438004629e-01  9.9999940844937729e-01  9.9999960577031366e-01  9.9999984052533941e-01  9.9999856856671854e-01  9.9999899138209269e-01  9.9999910478912990e-01  9.9999586424205333e-01  1.0000000782688174e+00  9.9999898220867511e-01  9.9999930709962681e-01  9.9999911674125885e-01  9.9999749571432550e-01  9.9999945600125484e-01  9.9999994024469940e-01  9.9999960115598530e-01  9.9999859086908882e-01  9.9999862786432248e-01  9.9999953167881606e-01  9.9999818355740888e-01  9.9999925591884309e-01  9.9999992475315902e-01  9.9999999725241595e-01  9.9999876273391952e-01  9.9999889053335189e-01  9.9999953612092785e-01  9.9999990162975450e-01  9.9999881386093026e-01  9.9999898445540747e-01  9.9999929315109271e-01  9.9999931309478307e-01  9.9999714754168634e-01  1.0000068929598240e+00  1.0000004173455184e+00  9.9999960737360061e-01  9.9999915856342358e-01  9.9999996603400620e-01  9.9999925442457205e-01  9.9999947622330720e-01  1.0000018805246778e+00  1.0000009382874162e+00  9.9999951890051320e-01  9.9999937949223494e-01  9.9999850553674408e-01  9.9999453713769570e-01  9.9999461726166494e-01  1.0000003428413169e+00  9.9999852522176347e-01  9.9999990360878555e-01  1.0000004982356077e+00  9.9999982573060064e-01  9.9999910585075003e-01  9.9999813742165022e-01  9.9999756443265353e-01  9.9999819127712875e-01  9.9999993404014997e-01  9.9999940245426622e-01  9.9999965908469435e-01  9.9999950409605420e-01  9.9999934701375148e-01  1.0000212341620152e+00  9.9999970598035437e-01  9.9999879221195009e-01  9.9999930187512154e-01  9.9999895873154387e-01  9.9999947213095108e-01  1.0000094802047959e+00  9.9999899213040699e-01  9.9999977110078186e-01  1.0000011350247542e+00  9.9999997486001180e-01  9.9999804066228126e-01  9.9999810882958107e-01  9.9999851942365692e-01  9.9999956964684711e-01  1.0000001008763819e+00  9.9999832180497894e-01  9.9999968169675624e-01  9.9999888026782913e-01  1.0000005697736396e+00  9.9999949504159202e-01  9.9999868845486117e-01  9.9999848178470296e-01  9.9999935458730604e-01  9.9999952431963302e-01  9.9999943485800780e-01  9.9999986662462548e-01  1.0000008427589238e+00  9.9999963027976302e-01  9.9999882807031737e-01  9.9999918860922932e-01  9.9999925564420811e-01  9.9999893916813254e-01  1.0000003234363446e+00  9.9999959356034296e-01  1.0000001373858305e+00  9.9999969365538655e-01  1.0000000768192452e+00  1.0000001010423885e+00  9.9998701272616064e-01  9.9999884346136936e-01  9.9999963945991710e-01  9.9999843083205731e-01  9.9999983509685331e-01  9.9999985259885749e-01  9.9999808930242406e-01  9.9999946422521147e-01  9.9999926722601884e-01  9.9999893524059436e-01  9.9999891035515498e-01  9.9999962931390884e-01  1.0000000807259746e+00  9.9999824254581360e-01  9.9999944019632481e-01  9.9999955565042253e-01  9.9999965388611589e-01  9.9999904762884584e-01  9.9999914342756768e-01  1.0000025491912374e+00  1.0000020959638440e+00  9.9999920489355154e-01  1.0000012768352082e+00  9.9999965590706941e-01  1.0000010020904673e+00  1.0000005701232269e+00  9.9999976322223927e-01  9.9999998853550898e-01  9.9999931898735284e-01  9.9999538647733943e-01  9.9999944320770096e-01  1.0000015700881955e+00  9.9999983484315691e-01  9.9999340200671083e-01  9.9999870145864433e-01  9.9999971259854548e-01  1.0000001507153158e+00  9.9999948871562894e-01  1.0000001422935831e+00  9.9999937384571846e-01  9.9999959315767362e-01  1.0000008071115201e+00  9.9999953273062825e-01  1.0000001484281797e+00  1.0000004770935418e+00  1.0000004530521396e+00  9.9999877118053693e-01  9.9999997691089815e-01  9.9999883167576209e-01  9.9999978506459086e-01  9.9999814902502260e-01  9.9999952214561449e-01  9.9999906775467062e-01  1.0000005280862376e+00  9.9999871373995586e-01  9.9999966072737234e-01  9.9999938389436038e-01  9.9999940555154243e-01  9.9999892630426168e-01  1.0000004167410561e+00  1.0000000898832926e+00  9.9999917409568062e-01  9.9999995934735886e-01  9.9999908512332170e-01  9.9999982210269778e-01  1.0000004166261043e+00  1.0000000106767111e+00  9.9999695216188100e-01  9.9999852341907802e-01  9.9999971617472416e-01  1.0000010190430351e+00  9.9999897567644680e-01  9.9999901782764011e-01  1.0000002026126231e+00  9.9999923257722600e-01  9.9999957473401779e-01  9.9999917766285196e-01  1.0000001149194291e+00  9.9999899131308267e-01  9.9999960590111503e-01  1.0000000076052684e+00  9.9999811374743552e-01  9.9999836313457413e-01  1.0000001187290934e+00  9.9999920889685667e-01  1.0000001556336935e+00  1.0000013199269659e+00  1.0000000168142327e+00  1.0000001029022481e+00  9.9999892683377223e-01  9.9999947370197051e-01  9.9999876298963719e-01  9.9999989367231434e-01  9.9999926972603992e-01  9.9999972605715792e-01  1.0000005508622347e+00  9.9999978492278441e-01  9.9999844579715891e-01  9.9999962663579889e-01  9.9999940490195527e-01  9.9999993936514009e-01  9.9999960452621472e-01  9.9999913255847439e-01  9.9999785207859893e-01  9.9999958022142976e-01  9.9999886116632497e-01  9.9999678462687835e-01  9.9999900316819257e-01  9.9999910502316591e-01  1.0000007038836849e+00  9.9999703803823181e-01  9.9999729442455831e-01  9.9999770866632121e-01  9.9999694996533706e-01  9.9999954813089131e-01  1.0000007210393194e+00  9.9999926879289291e-01  9.9999897230268620e-01  9.9999993047196467e-01  1.0000002355090516e+00  9.9999945531035173e-01  9.9999791080203626e-01  9.9999685525925275e-01  9.9999927450597081e-01  9.9999960657382425e-01  9.9999887649714359e-01  9.9999889290413879e-01  9.9999924611326829e-01  9.9999922825084153e-01  1.0000011827114041e+00  1.0000000516368031e+00  1.0000000643650249e+00  9.9999776390028938e-01  1.0000005653551327e+00  1.0000004263877640e+00  9.9999974678231285e-01  9.9999912749342312e-01  1.0000001076147991e+00  1.0000000306930779e+00  1.0000010255032972e+00  9.9999888190796105e-01  9.9999918766975882e-01  9.9999950072467991e-01  9.9999999794624161e-01  9.9999844321035380e-01  9.9999947590258864e-01  1.0000006487120126e+00  9.9999957054519140e-01  1.0000005186937579e+00  9.9999992499048118e-01  9.9999993633652917e-01  9.9999981060086707e-01  9.9999967033089099e-01  1.0000009596885353e+00  9.9999897681597238e-01  9.9999963970871419e-01  9.9999939549443650e-01  9.9999854194616933e-01  1.0000012505779663e+00  9.9999966356364678e-01  9.9999993685801547e-01  1.0000001767038416e+00  9.9999000500054758e-01  9.9999937243113535e-01  9.9999950495812984e-01  9.9999932417915394e-01  9.9999993557745137e-01  1.0000000091900498e+00  1.0000002521605829e+00  9.9999842154898977e-01  9.9999888522391711e-01  9.9999973839252820e-01  1.0000051041337235e+00  9.9999936534708700e-01  9.9999926715687870e-01  9.9999792024695067e-01  1.0000000400122810e+00  1.0000005259435918e+00  9.9999914857618000e-01  9.9999957050668875e-01  1.0000005066229753e+00  9.9999907669105581e-01  9.9999944134103735e-01  1.0000001604671136e+00  9.9999962672638953e-01  9.9999998501432075e-01  9.9999980053682536e-01  9.9999896868084714e-01  1.0000001197194985e+00  1.0000008803853047e+00  9.9999534799380640e-01  9.9999936240700682e-01  9.9999986674742403e-01  9.9999944918305705e-01  9.9999916037577974e-01  9.9999975224654614e-01  1.0000043507677827e+00  1.0000000358309091e+00  9.9999946232071957e-01  9.9999969470811900e-01  9.9999901834861871e-01  1.0000006762539670e+00  9.9999879999520169e-01  1.0000006103090264e+00  9.9999861552593261e-01  9.9999862828171615e-01  1.0000001570103465e+00  1.0000000934959727e+00  1.0000002310203748e+00  9.9999928655293457e-01  9.9999983600071918e-01  1.0000007200098791e+00  9.9999990765385027e-01  9.9999872307477033e-01  1.0000004763804649e+00  9.9999982387544928e-01  9.9999729613339627e-01  9.9999912769236432e-01  9.9999957449517196e-01  9.9999899035492157e-01  9.9999900848372525e-01  9.9999936583861060e-01  9.9999960618797445e-01  9.9999839210357166e-01  9.9999851341805202e-01  9.9999864693639906e-01  9.9999947358755881e-01  9.9999964497827520e-01  9.9999843616462036e-01  9.9999968590801069e-01  9.9999977125451911e-01  9.9999859741441732e-01  1.0000007303837173e+00  9.9999982145204014e-01  9.9999810597348637e-01  1.0000012070973470e+00  1.0000010852603491e+00  9.9999938901578389e-01  9.9999903814002866e-01  1.0000009881976162e+00  9.9999941782775270e-01  9.9999975409293540e-01  9.9999910405163062e-01  9.9999829538538010e-01  9.9999961258242287e-01  9.9999946469536627e-01  9.9999929036513824e-01  1.0000006113128823e+00  9.9999888367237033e-01  1.0000004356327543e+00  9.9999941674038839e-01  1.0000021382249804e+00  9.9999970786135761e-01  1.0000002446210823e+00  9.9999898234832008e-01  9.9999981128651583e-01  9.9999936296832703e-01  9.9999838689485