<?xml version="1.0"?>
<VTKFile type="UnstructuredGrid"  version="0.1"  >
<UnstructuredGrid>
<Piece  NumberOfPoints="2563" NumberOfCells="4278">
<Points>
<DataArray  type="Float64"  NumberOfComponents="3"  format="ascii">1.25 0 0  1.249623523370255 0.03067653565364036 0  1.248494320256466 0.06133459290927252 0  1.246613070848363 0.09195570449958429 0  1.243980908340246 0.1225214254119508 0  1.240599418248387 0.1530133439990203 0  1.236470637455976 0.1834130930692022 0  1.231597052986177 0.2137023609503765 0  1.225981600504038 0.2438629025201603 0  1.219627662548161 0.2738765501960873 0  1.21253906649318 0.3037252248790798 0  1.2047200822443 0.333390946843623 0  1.196175419665261 0.3628558465680779 0  1.186910225741296 0.3921021754986144 0  1.176930081478776 0.4211123167402751 0  1.166240998543424 0.4498687956687352 0  1.154849415639108 0.4783542904563622 0  1.142762194629413 0.5065516425062373 0  1.129986616404304 0.5344438667878526 0  1.116530376494394 0.5620141620682582 0  1.102401580435444 0.5892459210324971 0  1.087608738885889 0.61612274028723 0  1.07216076250034 0.642628430241527 0  1.056066956562134 0.6687470248588714 0  1.039337015378182 0.6944627912745027 0  1.02198101643948 0.7197602392723067 0  1.004009414350806 0.7446241306155417 0  0.9854330345332579 0.7690394882257835 0  0.9662630667034212 0.7929916052045569 0  0.9465110581331058 0.8164660536922209 0  0.9261889066936989 0.8394486935587729 0  0.9053088536893338 0.8619256809213336 0  0.8838834764831844 0.8838834764831843 0  0.8619256809213337 0.9053088536893337 0  0.8394486935587729 0.9261889066936989 0  0.8164660536922209 0.9465110581331055 0  0.7929916052045569 0.9662630667034212 0  0.7690394882257835 0.9854330345332578 0  0.7446241306155419 1.004009414350806 0  0.7197602392723067 1.02198101643948 0  0.6944627912745028 1.039337015378182 0  0.6687470248588716 1.056066956562134 0  0.642628430241527 1.07216076250034 0  0.6161227402872301 1.087608738885889 0  0.5892459210324973 1.102401580435444 0  0.5620141620682583 1.116530376494394 0  0.5344438667878527 1.129986616404304 0  0.5065516425062373 1.142762194629413 0  0.4783542904563623 1.154849415639108 0  0.4498687956687353 1.166240998543424 0  0.4211123167402751 1.176930081478776 0  0.3921021754986145 1.186910225741296 0  0.3628558465680779 1.196175419665261 0  0.333390946843623 1.2047200822443 0  0.30372522487908 1.21253906649318 0  0.2738765501960872 1.219627662548161 0  0.2438629025201604 1.225981600504038 0  0.2137023609503767 1.231597052986177 0  0.1834130930692022 1.236470637455976 0  0.1530133439990203 1.240599418248387 0  0.122521425411951 1.243980908340246 0  0.09195570449958432 1.246613070848363 0  0.06133459290927266 1.248494320256466 0  0.03067653565364033 1.249623523370255 0  7.654042494670958e-17 1.25 0  -0.03067653565364018 1.249623523370255 0  -0.06133459290927251 1.248494320256466 0  -0.09195570449958416 1.246613070848363 0  -0.1225214254119508 1.243980908340246 0  -0.1530133439990202 1.240599418248387 0  -0.1834130930692021 1.236470637455976 0  -0.2137023609503766 1.231597052986177 0  -0.2438629025201602 1.225981600504038 0  -0.2738765501960871 1.219627662548161 0  -0.3037252248790798 1.21253906649318 0  -0.3333909468436229 1.2047200822443 0  -0.3628558465680777 1.196175419665261 0  -0.3921021754986143 1.186910225741296 0  -0.4211123167402749 1.176930081478776 0  -0.4498687956687352 1.166240998543424 0  -0.4783542904563621 1.154849415639108 0  -0.5065516425062372 1.142762194629413 0  -0.5344438667878524 1.129986616404304 0  -0.5620141620682584 1.116530376494394 0  -0.5892459210324972 1.102401580435444 0  -0.61612274028723 1.087608738885889 0  -0.642628430241527 1.07216076250034 0  -0.6687470248588713 1.056066956562134 0  -0.6944627912745025 1.039337015378182 0  -0.7197602392723067 1.02198101643948 0  -0.7446241306155417 1.004009414350806 0  -0.7690394882257834 0.9854330345332579 0  -0.7929916052045567 0.9662630667034213 0  -0.8164660536922207 0.9465110581331059 0  -0.8394486935587731 0.9261889066936988 0  -0.8619256809213337 0.9053088536893337 0  -0.8838834764831843 0.8838834764831844 0  -0.9053088536893334 0.8619256809213338 0  -0.9261889066936986 0.8394486935587732 0  -0.9465110581331058 0.8164660536922208 0  -0.9662630667034212 0.7929916052045569 0  -0.9854330345332578 0.7690394882257836 0  -1.004009414350806 0.7446241306155419 0  -1.02198101643948 0.7197602392723068 0  -1.039337015378182 0.6944627912745027 0  -1.056066956562134 0.6687470248588714 0  -1.07216076250034 0.6426284302415273 0  -1.087608738885889 0.6161227402872302 0  -1.102401580435444 0.5892459210324973 0  -1.116530376494394 0.5620141620682586 0  -1.129986616404304 0.5344438667878525 0  -1.142762194629413 0.5065516425062374 0  -1.154849415639108 0.4783542904563624 0  -1.166240998543424 0.4498687956687354 0  -1.176930081478776 0.4211123167402754 0  -1.186910225741296 0.3921021754986143 0  -1.196175419665261 0.362855846568078 0  -1.2047200822443 0.3333909468436231 0  -1.21253906649318 0.3037252248790801 0  -1.219627662548161 0.2738765501960876 0  -1.225981600504038 0.2438629025201608 0  -1.231597052986177 0.2137023609503765 0  -1.236470637455976 0.1834130930692023 0  -1.240599418248387 0.1530133439990204 0  -1.243980908340246 0.122521425411951 0  -1.246613070848363 0.09195570449958466 0  -1.248494320256466 0.06133459290927246 0  -1.249623523370255 0.03067653565364041 0  -1.25 1.530808498934192e-16 0  -1.249623523370255 -0.0306765356536401 0  -1.248494320256466 -0.06133459290927215 0  -1.246613070848363 -0.09195570449958437 0  -1.243980908340246 -0.1225214254119507 0  -1.240599418248387 -0.1530133439990201 0  -1.236470637455976 -0.183413093069202 0  -1.231597052986177 -0.2137023609503762 0  -1.225981600504038 -0.2438629025201605 0  -1.219627662548161 -0.2738765501960873 0  -1.21253906649318 -0.3037252248790798 0  -1.2047200822443 -0.3333909468436228 0  -1.196175419665261 -0.3628558465680776 0  -1.186910225741296 -0.392102175498614 0  -1.176930081478776 -0.4211123167402752 0  -1.166240998543424 -0.4498687956687352 0  -1.154849415639108 -0.4783542904563621 0  -1.142762194629413 -0.5065516425062371 0  -1.129986616404304 -0.5344438667878523 0  -1.116530376494394 -0.5620141620682583 0  -1.102401580435444 -0.5892459210324971 0  -1.087608738885889 -0.6161227402872299 0  -1.07216076250034 -0.6426284302415269 0  -1.056066956562134 -0.6687470248588712 0  -1.039337015378182 -0.6944627912745025 0  -1.02198101643948 -0.7197602392723067 0  -1.004009414350806 -0.7446241306155416 0  -0.9854330345332579 -0.7690394882257834 0  -0.9662630667034213 -0.7929916052045566 0  -0.946511058133106 -0.8164660536922207 0  -0.9261889066936989 -0.8394486935587731 0  -0.9053088536893338 -0.8619256809213336 0  -0.8838834764831847 -0.8838834764831843 0  -0.8619256809213338 -0.9053088536893334 0  -0.8394486935587733 -0.9261889066936986 0  -0.8164660536922214 -0.9465110581331053 0  -0.7929916052045574 -0.9662630667034209 0  -0.7690394882257841 -0.9854330345332574 0  -0.7446241306155414 -1.004009414350806 0  -0.7197602392723066 -1.02198101643948 0  -0.6944627912745027 -1.039337015378182 0  -0.6687470248588716 -1.056066956562134 0  -0.6426284302415273 -1.07216076250034 0  -0.6161227402872302 -1.087608738885889 0  -0.5892459210324973 -1.102401580435444 0  -0.5620141620682586 -1.116530376494394 0  -0.5344438667878531 -1.129986616404304 0  -0.506551642506238 -1.142762194629413 0  -0.4783542904563629 -1.154849415639108 0  -0.4498687956687349 -1.166240998543424 0  -0.4211123167402749 -1.176930081478776 0  -0.3921021754986143 -1.186910225741296 0  -0.3628558465680781 -1.196175419665261 0  -0.3333909468436231 -1.2047200822443 0  -0.3037252248790802 -1.21253906649318 0  -0.2738765501960876 -1.219627662548161 0  -0.2438629025201608 -1.225981600504038 0  -0.2137023609503771 -1.231597052986176 0  -0.1834130930692029 -1.236470637455976 0  -0.1530133439990199 -1.240599418248387 0  -0.1225214254119506 -1.243980908340246 0  -0.09195570449958419 -1.246613070848363 0  -0.06133459290927254 -1.248494320256466 0  -0.03067653565364049 -1.249623523370255 0  -2.296212748401287e-16 -1.25 0  0.03067653565364003 -1.249623523370255 0  0.06133459290927207 -1.248494320256466 0  0.09195570449958373 -1.246613070848363 0  0.1225214254119501 -1.243980908340246 0  0.1530133439990195 -1.240599418248387 0  0.1834130930692024 -1.236470637455976 0  0.2137023609503766 -1.231597052986177 0  0.2438629025201604 -1.225981600504038 0  0.2738765501960872 -1.219627662548161 0  0.3037252248790797 -1.21253906649318 0  0.3333909468436227 -1.2047200822443 0  0.3628558465680776 -1.196175419665261 0  0.3921021754986139 -1.186910225741296 0  0.4211123167402745 -1.176930081478776 0  0.4498687956687345 -1.166240998543424 0  0.4783542904563625 -1.154849415639108 0  0.5065516425062375 -1.142762194629413 0  0.5344438667878527 -1.129986616404304 0  0.5620141620682583 -1.116530376494394 0  0.589245921032497 -1.102401580435444 0  0.6161227402872298 -1.087608738885889 0  0.6426284302415269 -1.07216076250034 0  0.6687470248588712 -1.056066956562134 0  0.6944627912745023 -1.039337015378182 0  0.7197602392723061 -1.02198101643948 0  0.7446241306155411 -1.004009414350806 0  0.7690394882257838 -0.9854330345332576 0  0.792991605204557 -0.9662630667034211 0  0.8164660536922209 -0.9465110581331058 0  0.8394486935587729 -0.9261889066936989 0  0.8619256809213336 -0.9053088536893338 0  0.8838834764831842 -0.8838834764831847 0  0.9053088536893333 -0.8619256809213339 0  0.9261889066936986 -0.8394486935587733 0  0.9465110581331053 -0.8164660536922214 0  0.9662630667034209 -0.7929916052045574 0  0.9854330345332574 -0.7690394882257843 0  1.004009414350806 -0.7446241306155416 0  1.02198101643948 -0.7197602392723066 0  1.039337015378182 -0.6944627912745027 0  1.056066956562134 -0.6687470248588716 0  1.07216076250034 -0.6426284302415274 0  1.087608738885889 -0.6161227402872304 0  1.102401580435443 -0.5892459210324974 0  1.116530376494394 -0.5620141620682587 0  1.129986616404304 -0.5344438667878532 0  1.142762194629413 -0.50655164250623
[...]
<PointData  Scalars="f_2085173"> 
<DataArray  type="Float64"  Name="f_2085173"  format="ascii">-1.7547407822328729e+01  -1.8169961657232591e+01  -1.8784008539642009e+01  -1.9412118072599075e+01  -2.0025307289009568e+01  -2.0686777730456750e+01  -2.1357282864476428e+01  -2.2044875621641971e+01  -2.2656531057968539e+01  -2.3330945871733114e+01  -2.3951662388202760e+01  -2.4552889304305747e+01  -2.5162083342914013e+01  -2.5774905650654208e+01  -2.6423391527053457e+01  -2.7025220199949906e+01  -2.7710314618725736e+01  -2.8305271234833736e+01  -2.8949493155638486e+01  -2.9582496274979778e+01  -3.0180195500646473e+01  -3.0804659772516562e+01  -3.1422557233954780e+01  -3.2057755695098557e+01  -3.2728843334182734e+01  -3.3372642800175463e+01  -3.4048156822045485e+01  -3.4702842055153170e+01  -3.5392481478365454e+01  -3.6058408686146628e+01  -3.6775929641666480e+01  -3.7494642851846990e+01  -3.8205158115634802e+01  -3.8924553293706794e+01  -3.9651661215826614e+01  -4.0326961345154793e+01  -4.1066467942045620e+01  -4.1795979625963334e+01  -4.2564372029435013e+01  -4.3361605340373984e+01  -4.4121651387666596e+01  -4.4943709713312764e+01  -4.5739062773876277e+01  -4.6588097206900194e+01  -4.7409427880592773e+01  -4.8265975053707400e+01  -4.9128149893942684e+01  -4.9991135673177141e+01  -5.0897497653056803e+01  -5.1820649403950377e+01  -5.2783042129402794e+01  -5.3750546253853976e+01  -5.4791311151636144e+01  -5.5799710216600410e+01  -5.6853704973055983e+01  -5.7948156233719637e+01  -5.9043851946704706e+01  -6.0185266394748744e+01  -6.1363443001310010e+01  -6.2531669143840055e+01  -6.3769175596159485e+01  -6.5024709051221990e+01  -6.6274728845382228e+01  -6.7553950646570954e+01  -6.8948251319618421e+01  -7.0230238206602252e+01  -7.1680472325076565e+01  -7.3042303141282218e+01  -7.4550928565887972e+01  -7.6065722193656214e+01  -7.7672846378503067e+01  -7.9255758976356773e+01  -8.0843563087834085e+01  -8.2600299000932949e+01  -8.4240554087764338e+01  -8.6232580295790214e+01  -8.8077787451015567e+01  -9.0238613723488825e+01  -9.2267228621437127e+01  -9.4364167958147505e+01  -9.6471657527894934e+01  -9.8734504880986961e+01  -1.0102489218672441e+02  -1.0333782040957260e+02  -1.0590213202853133e+02  -1.0836386341445596e+02  -1.1048406556981161e+02  -1.1326659239817837e+02  -1.1628175144970719e+02  -1.1919082671300659e+02  -1.2142446933195123e+02  -1.2401331679404842e+02  -1.2661223980151497e+02  -1.2899235995748515e+02  -1.3208715248976455e+02  -1.3477523818754037e+02  -1.3777681916395028e+02  -1.4077902412325275e+02  -1.4290400288473276e+02  -1.4539345595982772e+02  -1.4823974821082962e+02  -1.5030440600103975e+02  -1.5320124277501529e+02  -1.5598167240959245e+02  -1.5773751625791144e+02  -1.5779601866130443e+02  -1.5853907205951535e+02  -1.5733021766608493e+02  -1.5595692002508741e+02  -1.5337759008669039e+02  -1.4648070409915661e+02  -1.4399737516496080e+02  -1.3779805076837880e+02  -1.3052564408125087e+02  -1.1941061291592051e+02  -1.0669557153575786e+02  -9.5810820631769303e+01  -7.5641319647772491e+01  -5.1884246825298618e+01  -2.8738485325064978e+01  -7.2759617008886650e+00  1.7804038184537177e+01  4.9211696551990805e+01  7.9814684478293898e+01  1.1227809008806412e+02  1.4402631268809031e+02  1.7594345443019495e+02  2.0731852183000035e+02  2.3775746450489936e+02  2.6712553072900772e+02  2.9473985546982141e+02  3.2054985215165453e+02  3.4315137565854576e+02  3.6289286549228501e+02  3.7917340662736763e+02  3.9038701284172151e+02  3.9637183551877393e+02  3.9568772504781452e+02  3.9605774790596143e+02  3.9428487527686002e+02  3.9035455636204546e+02  3.8438115668621248e+02  3.7769359802679884e+02  3.7122448163478003e+02  3.6342794726838821e+02  3.5364600107356677e+02  3.4418011286313157e+02  3.3509780635993707e+02  3.2339433258871662e+02  3.1188189391724904e+02  3.0166646573869014e+02  2.9297179919350623e+02  2.8291735194109788e+02  2.7223827925398689e+02  2.6247959529476407e+02  2.5257364741244919e+02  2.4294182869259217e+02  2.3392254521509437e+02  2.2478393270763829e+02  2.1557336079677478e+02  2.0635555509782472e+02  1.9740677153521128e+02  1.8796821940725275e+02  1.8250765131137138e+02  1.7453941337292079e+02  1.6387455292516620e+02  1.5651298379513864e+02  1.5009966316360072e+02  1.4416801344120623e+02  1.3886247030050509e+02  1.3295229487102293e+02  1.2713835730358953e+02  1.2177796869403593e+02  1.1694314949700274e+02  1.1226801868931459e+02  1.0766127821533688e+02  1.0349544827645077e+02  9.9672473529911883e+01  9.6059042202038910e+01  9.1979436251402689e+01  8.8677699746269482e+01  8.4899581003746192e+01  8.1595935174876246e+01  7.8720631693500110e+01  7.5455048008273025e+01  7.2344175316593223e+01  6.9709274087216102e+01  6.6702907650184770e+01  6.3846222686608272e+01  6.0821431189476208e+01  5.8375241018652076e+01  5.6108227046926757e+01  5.3417972674327018e+01  5.1475184341047608e+01  4.9311151122521963e+01  4.7106169174128439e+01  4.4772818960969076e+01  4.2789229353310724e+01  4.0935293585378808e+01  3.8974332548229292e+01  3.7273803415195275e+01  3.5601052861086842e+01  3.4006457247805670e+01  3.2469356944443852e+01  3.0718500481960529e+01  2.9181683918033805e+01  2.7774979611275942e+01  2.6323973734317711e+01  2.4837539941869935e+01  2.3599701083549711e+01  2.2553958875206433e+01  2.1482528039068146e+01  2.0216728184643529e+01  1.9101341641920701e+01  1.7858056808101875e+01  1.6735969105119381e+01  1.5723663974905591e+01  1.4583772367241410e+01  1.3431723815161947e+01  1.2481695851878792e+01  1.1467488867418831e+01  1.0404961127802640e+01  9.3233579941083757e+00  8.3197128046168274e+00  7.3665080731389594e+00  6.3940339199432792e+00  5.5022971099556006e+00  4.6692781667787644e+00  3.7274018322704463e+00  2.8705966583145486e+00  2.1157735378084577e+00  1.2764041384529448e+00  3.6860989757624385e-01  -4.7685035994661806e-01  -1.3362483286166353e+00  -2.1407168164552637e+00  -2.9448350555127920e+00  -3.6974020810846704e+00  -4.4784652731199657e+00  -5.3293255498031913e+00  -6.1259271692683956e+00  -6.8852290416508870e+00  -7.6658586406713809e+00  -8.4265286792897651e+00  -9.1569527027392894e+00  -9.8278763306265127e+00  -1.0557240089737931e+01  -1.1262030052245494e+01  -1.2007213239165511e+01  -1.2738250618536716e+01  -1.3497986197833864e+01  -1.4176111348143891e+01  -1.4871050631988025e+01  -1.5593206522943701e+01  -1.6261374189422664e+01  -1.6940892828720038e+01  -1.8221076594482373e+01  -1.7316625673395567e+01  -1.6357023444199779e+01  -1.5390310721115746e+01  -1.4478499713318215e+01  -1.3571601990363847e+01  -1.2783467241200272e+01  -1.2024252875450852e+01  -1.0972960872882471e+01  -1.0147602496641108e+01  -9.2226118727935535e+00  -8.2637600627480357e+00  -7.2530297777701360e+00  -6.2213125170773402e+00  -5.2925405777069905e+00  -4.3358355613017148e+00  -3.3818122432882065e+00  -2.3128388607689505e+00  -1.2805442747705715e+00  -2.4994821423289268e-01  8.8876695339437151e-01  1.7908711115591769e+00  2.5653083577701330e+00  3.6503713002592360e+00  4.8257527852099429e+00  5.9070390272758395e+00  7.0665810140303309e+00  8.0212614033707474e+00  9.0569665069840326e+00  1.0557293740364152e+01  1.1930285035065593e+01  1.3028407224490726e+01  1.4171702891392934e+01  1.5291642362910828e+01  1.6368770026713374e+01  1.7413165083421575e+01  1.8643087085232526e+01  1.9961730501702476e+01  2.1179805807654581e+01  2.2469745253312055e+01  2.3955595568830478e+01  2.5698006965103513e+01  2.7603180296813061e+01  2.9061731146846842e+01  3.0411206127202394e+01  3.1926953430979374e+01  3.3762214281998411e+01  3.5853247717186441e+01  3.7797703491875865e+01  3.9580499068450258e+01  4.1638952949838746e+01  4.3428982884480483e+01  4.5632940159677865e+01  4.7913848679504355e+01  5.0191768457865223e+01  5.2395747571174894e+01  5.4513010533939685e+01  5.6697577896874684e+01  5.9474972150683449e+01  6.2103964495946208e+01  6.5171686224393213e+01  6.7389560547408550e+01  6.9852844248822578e+01  7.2535325051958651e+01  7.5540434785793195e+01  7.8667972173755288e+01  8.1737895217106015e+01  8.4475470348145947e+01  8.7361716942840843e+01  9.0458193120557510e+01  9.4008034521955864e+01  9.7851636204452333e+01  1.0207104558137223e+02  1.0550248594206090e+02  1.0919049614475408e+02  1.1375896283774786e+02  1.1820506993580251e+02  1.2302870161878907e+02  1.2809837305446487e+02  1.3300562998898585e+02  1.3801464371398276e+02  1.4277745462512161e+02  1.4881768230945377e+02  1.5597115120986248e+02  1.6221619972300269e+02  1.6837527592609518e+02  1.7522918892360317e+02  1.8201183348064814e+02  1.8905752253102528e+02  1.9781296904314303e+02  2.0513531492970725e+02  2.1229429031709972e+02  2.2061419370199624e+02  2.2774657946324751e+02  2.3448550138209544e+02  2.4283681729076744e+02  2.5215508169292318e+02  2.6043732318138166e+02  2.6948579144596550e+02  2.7815978798049412e+02  2.8706421572991746e+02  2.9490171636086899e+02  3.0348660802268228e+02  3.1349185268045807e+02  3.2365583174054206e+02  3.3353808524813445e+02  3.4259084636842181e+02  3.4959946179844781e+02  3.5885550267057818e+02  3.6926548453137809e+02  3.7452344837869055e+02  3.8209142067064204e+02  3.8857668482091856e+02  3.9616955072743713e+02  4.0232025545231869e+02  4.0666612726837087e+02  4.0930254686252056e+02  4.1395665078545994e+02  4.1619493353756127e+02  4.1451089562065528e+02  4.0830611266023482e+02  3.9891832006681017e+02  3.8619187330292567e+02  3.7081192347422035e+02  3.5297821704984796e+02  3.3328075234539574e+02  3.1243122001613023e+02  2.8981140711058686e+02  2.6586358528572981e+02  2.4082933182878304e+02  2.1487985807980274e+02  1.8845766217020568e+02  1.6168205187500249e+02  1.3507348743039205e+02  1.0793453436807867e+02  8.0455223803902030e+01  5.3794262313887671e+01  2.7026437482469795e+01  4.6364935023656333e+00  -1.5643070126858374e+01  -3.4863728189005755e+01  -5.3272138397781980e+01  -7.4170283921196727e+01  -9.2403113974575348e+01  -1.0323042218289226e+02  -1.1208419203154602e+02  -1.2430329130206088e+02  -1.3225128203424049e+02  -1.3814931776698035e+02  -1.4333230853892312e+02  -1.4673624622466539e+02  -1.4954417563858416e+02  -1.5422054547674094e+02  -1.5674423629459761e+02  -1.5701895337399372e+02  -1.5748661763774254e+02  -1.5737095474642138e+02  -1.5689538502480906e+02  -1.5622382852523691e+02  -1.5415862150187380e+02  -1.5192076088913524e+02  -1.4888873681809227e+02  -1.4683314836057207e+02  -1.4440892131505319e+02  -1.4249627410475787e+02  -1.4036405854386655e+02  -1.3790181401873645e+02  -1.3500463574056101e+02  -1.3283782389151713e+02  -1.2993646850148173e+02  -1.2745520841515480e+02  -1.2502471052230203e+02  -1.2318280013110737e+02  -1.2112349747073790e+02  -1.1863073067526587e+02  -1.1585957505219135e+02  -1.1356065230846686e+02  -1.1126080528737877e+02  -1.0881374379607941e+02  -1.0660545090548536e+02  -1.0440220749085248e+02  -1.0233816147262914e+02  -1.0011634295577812e+02  -9.8075475196973585e+01  -9.5988296500352575e+01  -9.4076402863526909e+01  -9.2113722034731936e+01  -9.0212468207789954e+01  -8.8374420074202035e+01  -8.6496437825393883e+01  -8.4691097778754482e+01  -8.3100235178643700e+01  -8.1442754242689418e+01  -7.9912049840280375e+01  -7.8463197087035866e+01  -7.7006329108985014e+01  -7.5443688136749088e+01  -7.3961719851132841e+01  -7.2558875125059132e+01  -7.1211440781771771e+01  -6.9833413308123866e+01  -6.8514244884935422e+01  -6.7199682969300241e+01  -6.5886674375001434e+01  -6.4603533382834087e+01  -6.3460667674647276e+01  -6.2290657951596906e+01  -6.1088676224506358e+01  -5.9911786555085634e+01  -5.8786444299363154e+01  -5.7705913451236803e+01  -5.6592218486202036e+01  -5.5478128187822897e+01  -5.4506133810389301e+01  -5.3558436314519469e+01  -5.2535555220055308e+01  -5.1507872258994588e+01  -5.0510720122050515e+01  -4.9525624571490830e+01  -4.8597043606730622e+01  -4.7684464364458258e+01  -4.6776744120539789e+01  -4.5896927804171511e+01  -4.5029997030790192e+01  -4.4139883489770675e+01  -4.3281658645326935e+01  -4.2429781776494274e+01  -4.1548046498247473e+01  -4.0655761221008298e+01  -3.9769941851516755e+01  -3.8931093786639643e+01  -3.8113017252799985e+01  -3.7348783650457612e+01  -3.6587406362029576e+01  -3.5780808954075084e+01  -3.4994599598598207e+01  -3.4217891504825225e+01  -3.3458028958012534e+01  -3.2722414554171465e+01  -3.1999549505257516e+01  -3.1185635969912038e+01  -3.0444848896071946e+01  -2.9571917795182134e+01  -2.8667795779137052e+01  -2.7857569248237528e+01  -2.7076584540749195e+01  -2.6290547883106374e+01  -2.5515043181991491e+01  -2.4758976062281477e+01  -2.3885286529488980e+01  -2.3065321860066049e+01  -2.2282089487583015e+01  -2.1467500882466851e+01  -2.0744727414080554e+01  -1.9927451287760210e+01  -1.9128058695299625e+01  -1.6569318261973326e+01  -2.2538014167070703e+01  -1.0059998715749870e+01  -2.8135650550747950e+01  -3.3486766412657838e+00  -3.3482180857834287e+01  3.6228910045302114e+00  -3.9095456219100107e+01  1.1174886956502769e+01  -4.5069081152087200e+01  1.9769412278106657e+01  -5.0720458613158272e+01  2.7711980998773942e+01  -5.6523846247110363e+01  3.8192094262401220e+01  -6.2532214379002625e+01  5.0146194293902155e+01  -6.8718919736385416e+01  -1.9781611442729400e+01  6.1416330824594809e+01  -1.3703303770953793e+01  -2.5324194233200618e+01  -7.1428460748739377e+00  -1.9346337958015134e+01  -6.1842177511460159e+00  -1.2554504141302692e+01  -2.4816524299026707e+01  -7.4984530514570537e+01  -2.4878291469695565e-01  -3.0819278525173715e+01  -3.0248129728969502e+01  7.3047522751838898e+01  7.0270232870374472e-01  -3.6182146474727539e+01  6.8787586643359742e+00  -3.5684153065442658e+01  7.8545322206222421e+00  -1.7255360507627422e+01  -8.1540441847936663e+01  -2.2357173653509335e+01  -1.0183398044552135e+01  -1.5871083850459479e+01  -4.1951004374520316e+01  1.4847545815973163e+01  -2.7760982771762528e+01  -4.1526365472205129e+01  1.6048649982174503e+01  8.5606292597233036e+01  -3.5199828232785566e+00  -3.3617611054353432e+01  3.0189488551544352e+00  -8.8573914748280743e+01  2.2817344728503713e+01  -4.7784813916021761e+01  -2.6343561030635474e+00  -9.3026920471487280e+00  9.7780959435287755e+01  -3.9454688174207710e+01  1.0587263580324308e+01  1.1893024967139711e+01  -4.6844533354607755e+01  -2.2070308277560269e+01  -2.7561689490191359e+01  2.4385560479647712e+01  -3.2863857846084542e+01  -3.8476472477085103e+01  -5.3248485381490326e+01  3.1212120726137474e+01  -9.6747066661543784e+01  -4.4427659324236245e+01  1.1166717907441169e+02  4.5061714168589626e+00  -5.3311346466716827e+01  3.3773232738326058e+01  1.8307192732587602e+01  2.0168136683674810e+01  -1.0389101177341479e+02  -2.5832176841041875e+01  -1.2683801729226946e+01  -5.0361904216399964e+01  -5.9582069091704049e+01  4.3343316957940388e+01  -4.9933595753636524e+01  2.6418366445765542e+01  -2.0267842340530780e+01  1.2756344659595877e+02  4.3857927646811326e+01  -5.9354283953068894e+01  -3.1196828915546405e+01  -6.5638208728003846e+01  -4.4002463108079859e+01  -5.1284825693188951e-01  2.9194371758544978e+01  -7.5323031431099086e+00  -1.1114095932821967e+02  -5.6016911218708586e+01  3.5853137184674701e+01  6.5581438330124300e+00  5.3797002375293012e+01  -3.6744492937264155e+01  1.4426355248428138e+02  -1.8911139930306373e+01  -2.4080748763292693e+01  -1.5422764801454582e+01  -6.5490710865465942e+01  -5.7636871356941004e+00  -1.2328688903294188e+01  -8.4393938819645520e+00  5.6778059297371364e+01  -2.9497695069455176e+01  -4.7418330125907737e+01  -1.4786743718134396e+01  -2.0741569827629700e+01  -1.1804115410731229e+02  -5.6169644114734190e+01  -2.9083251842862555e+01  -1.7602441821875338e+01  -6.2446879820628240e+01  -3.1970684253956659e+01  4.9790623622845246e+01  -7.0878968450120823e+01  -7.1848199837081410e+01  -1.8105791958920470e+01  -6.8564019085912342e+00  -2.5982425651629935e+01  3.8452948776481513e+01  1.6529235517909638e+02  -1.4751011209828910e+01  -1.1691218380739521e+01  -4.1180802613941189e+01  -1.9931466274754854e+01  -7.8352349518532620e+01  -5.5207359296526768e+00  4.8041915752976557e+01  -1.7659366833406466e+01  6.7681095935374515e+01  -1.3728204166741746e+01  -1.0748407319788553e+01  -1.2422891637031705e+02  6.6173971909004649e+01  9.2957664825511521e-01  -1.8697578782317184e+00  -8.8269486498835939e-02  -3.7597572084149881e+01  -2.3405750850892108e+01  -2.5827656914556943e+01  -2.1257219033381173e+01  -4.5848432291857550e+00  -2.4313932303901854e+01  2.2704206630285743e+01  -3.8051052682751887e+01  -3.5152196665677806e+01  -8.8257815544868254e+00  1.4193622599112931e+01  -3.2325053948063371e+01  -2.6743792880010176e+01  -4.2530077848724366e+00  4.8719933603302756e+00  8.0945659923808009e+00  4.9187972101336008e+00  -2.3003945012607980e+00  -6.8565689752957979e+01  1.7146240375114925e+01  -6.2274348463930885e+01  9.9112940518961210e+00  -2.3545200746892942e+01  -2.8988616353710380e+01  -3.1004545540044841e+01  1.8423112746406574e+00  -1.1059753541655809e+01  -1.5444628779301812e+00  -4.3397960291116043e+01  -5.3044770812311278e+01  7.8512956830163958e+01  1.8308865090354837e+02  -7.6775086593773665e+01  -4.0997061111061100e+01  -3.5138027201091859e+01  2.7285827148673398e+00  1.5373514571511890e+01  1.2711549034136240e+01  1.5804384366610794e+01  5.8983257059719257e+01  -3.6463536485169321e+01  -3.4419613142022165e+01  8.6291321495936817e+00  -2.9536362430018908e+01  9.7380218952250601e+00  7.0537503757276081e+00  7.8672680500232588e+01  -1.3164209930344728e+02  -8.4963695514012315e+01  -4.2801478726094508e+01  2.4922375414324947e+00  -2.1015172397996270e+01  -4.3258767410857175e+01  -1.3973741989753512e+01  1.3277320541057986e+01  -8.1448504377483424e+00  -7.4872726699890904e+01  -1.5821417612120138e+01  -2.6875989850703814e+01  -4.0368164661154537e+01  2.0354067579462122e+02  3.4065267414587616e+01  -3.4265601333532615e+01  -4.3324864533496674e+00  5.5453006808395795e+00  -5.8992999286897664e+01  1.2482363688353326e+01  -8.4958934948338637e+01  1.7819296549424383e+01  -4.6112803477500016e+01  -4.8671525899825760e+01  -2.3061082185423345e+01  7.1105923155943813e+01  4.2474699596098645e+01  -3.7894630976460185e+01  -4.0168700346536234e+01  -1.3835341178986673e+02  -3.9958548553814992e+01  2.0717704176467134e+01  2.3729678289464207e+01  -9.3000420984766649e+01  -2.2934232108184137e+01  -1.7805691255570871e+01  -2.7246151994420579e+01  -8.8282890846315301e+00  -3.1731984430006062e+01  9.2792233366041216e+01  8.8367068402312839e+01  -4.2289729550192163e+01  -2.1703951553709540e+01  -9.9280367476200748e+00  3.9227443872232520e+01  -4.5946995632946710e+01  1.0296460028365122e+02  1.7721693668720896e+01  -8.1394108649643755e+01  2.2446209457709358e+02  -9.2296391459808916e+01  -4.9047915404388704e+01  -3.2681370619432137e+01  -3.0729132721194951e+01  -1.5776910691377642e+01  -2.1412738130487110e+00  -8.0233040615796440e+01  -3.0137303091262641e+01  1.0592630437971557e+02  -4.9011135418076428e+01  2.3859190465279980e+01  -6.5061152825701271e+01  -1.4330659761663813e+02  2.0639248010454025e+01  -4.4185909282147353e+00  2.4939039234899308e+01  -3.4821261431209997e+01  -5.4927955839131890e+01  3.0718810300326794e+01  8.5605031920397963e+01  3.2754943185082389e+01  2.8522732506285287e+01  -5.4249963015584122e+01  -5.1953957734480902e+01  2.4204589538640880e+02  1.3430230624288102e+00  3.3278731121303579e+01  5.6523783015354304e+01  6.2091667882558561e+01  -4.8226720701506942e+01  -4.6033388940800450e+01  2.6344569047034565e+01  2.1510704462007979e+01  -2.8397797191230474e+01  -6.8154763697333138e+01  -1.8728843458497629e+01  -7.2122582519015040e+01  9.0206949243117283e+00  -7.3775700944722047e+01  1.1632106892986603e+02  -9.9552689369038362e+01  -3.4013195836771786e+01  -3.3586965334822757e+01  7.2700824742605519e+01  -5.1828221126547646e+01  2.2523909071194903e+00  -4.5008790645195511e+01  -1.4792140728274669e+02  -8.9027590457529669e+01  9.5255380778337070e+01  3.0475548253591064e+01  4.6147660862181830e+01  -5.3898845498717002e+01  -1.1269577112562200e+01  2.7078821887754405e+01  -3.8819549918867317e+01  -7.8397331628328914e+01  -5.7909287356