<?xml version="1.0"?>
<VTKFile type="UnstructuredGrid"  version="0.1"  >
<UnstructuredGrid>
<Piece  NumberOfPoints="2401" NumberOfCells="4608">
<Points>
<DataArray  type="Float64"  NumberOfComponents="3"  format="ascii">0 0 0  0.001070538380698371 0 0  0.004277569313095364 0 0  0.009607359798386061 0 0  0.01703708685546806 0 0  0.02653493525245065 0 0  0.03806023374436157 0 0  0.05156362923366253 0 0  0.06698729810778931 0 0  0.08426519384873815 0 0  0.1033233298543955 0 0  0.1240800962605269 0 0  0.1464466094067445 0 0  0.1703270924499866 0 0  0.1956192854956637 0 0  0.2222148834902257 0 0  0.2500000000000299 0 0  0.2788556548905322 0 0  0.308658283817491 0 0  0.339280267348458 0 0  0.3705904774487813 0 0  0.4024548389919803 0 0  0.4347369038900211 0 0  0.467298435384978 0 0  0.5000000000000517 0 0  0.5327015646151253 0 0  0.5652630961100813 0 0  0.5975451610081212 0 0  0.6294095225513188 0 0  0.6607197326516399 0 0  0.6913417161826045 0 0  0.7211443451095605 0 0  0.7500000000000597 0 0  0.7777851165098603 0 0  0.8043807145044185 0 0  0.829672907550091 0 0  0.8535533905933287 0 0  0.8759199037395413 0 0  0.8966766701456674 0 0  0.9157348061513193 0 0  0.9330127018922625 0 0  0.9484363707663832 0 0  0.961939766255678 0 0  0.9734650647475827 0 0  0.9829629131445586 0 0  0.9903926402016341 0 0  0.9957224306869181 0 0  0.9989294616193084 0 0  1 0 0  0 0.02083333333333333 0  0.001070538380698371 0.02083333333333333 0  0.004277569313095364 0.02083333333333333 0  0.009607359798386061 0.02083333333333333 0  0.01703708685546806 0.02083333333333333 0  0.02653493525245065 0.02083333333333333 0  0.03806023374436157 0.02083333333333333 0  0.05156362923366253 0.02083333333333333 0  0.06698729810778931 0.02083333333333333 0  0.08426519384873815 0.02083333333333333 0  0.1033233298543955 0.02083333333333333 0  0.1240800962605269 0.02083333333333333 0  0.1464466094067445 0.02083333333333333 0  0.1703270924499866 0.02083333333333333 0  0.1956192854956637 0.02083333333333333 0  0.2222148834902257 0.02083333333333333 0  0.2500000000000299 0.02083333333333333 0  0.2788556548905322 0.02083333333333333 0  0.308658283817491 0.02083333333333333 0  0.339280267348458 0.02083333333333333 0  0.3705904774487813 0.02083333333333333 0  0.4024548389919803 0.02083333333333333 0  0.4347369038900211 0.02083333333333333 0  0.467298435384978 0.02083333333333333 0  0.5000000000000517 0.02083333333333333 0  0.5327015646151253 0.02083333333333333 0  0.5652630961100813 0.02083333333333333 0  0.5975451610081212 0.02083333333333333 0  0.6294095225513188 0.02083333333333333 0  0.6607197326516399 0.02083333333333333 0  0.6913417161826045 0.02083333333333333 0  0.7211443451095605 0.02083333333333333 0  0.7500000000000597 0.02083333333333333 0  0.7777851165098603 0.02083333333333333 0  0.8043807145044185 0.02083333333333333 0  0.829672907550091 0.02083333333333333 0  0.8535533905933287 0.02083333333333333 0  0.8759199037395413 0.02083333333333333 0  0.8966766701456674 0.02083333333333333 0  0.9157348061513193 0.02083333333333333 0  0.9330127018922625 0.02083333333333333 0  0.9484363707663832 0.02083333333333333 0  0.961939766255678 0.02083333333333333 0  0.9734650647475827 0.02083333333333333 0  0.9829629131445586 0.02083333333333333 0  0.9903926402016341 0.02083333333333333 0  0.9957224306869181 0.02083333333333333 0  0.9989294616193084 0.02083333333333333 0  1 0.02083333333333333 0  0 0.04166666666666666 0  0.001070538380698371 0.04166666666666666 0  0.004277569313095364 0.04166666666666666 0  0.009607359798386061 0.04166666666666666 0  0.01703708685546806 0.04166666666666666 0  0.02653493525245065 0.04166666666666666 0  0.03806023374436157 0.04166666666666666 0  0.05156362923366253 0.04166666666666666 0  0.06698729810778931 0.04166666666666666 0  0.08426519384873815 0.04166666666666666 0  0.1033233298543955 0.04166666666666666 0  0.1240800962605269 0.04166666666666666 0  0.1464466094067445 0.04166666666666666 0  0.1703270924499866 0.04166666666666666 0  0.1956192854956637 0.04166666666666666 0  0.2222148834902257 0.04166666666666666 0  0.2500000000000299 0.04166666666666666 0  0.2788556548905322 0.04166666666666666 0  0.308658283817491 0.04166666666666666 0  0.339280267348458 0.04166666666666666 0  0.3705904774487813 0.04166666666666666 0  0.4024548389919803 0.04166666666666666 0  0.4347369038900211 0.04166666666666666 0  0.467298435384978 0.04166666666666666 0  0.5000000000000517 0.04166666666666666 0  0.5327015646151253 0.04166666666666666 0  0.5652630961100813 0.04166666666666666 0  0.5975451610081212 0.04166666666666666 0  0.6294095225513188 0.04166666666666666 0  0.6607197326516399 0.04166666666666666 0  0.6913417161826045 0.04166666666666666 0  0.7211443451095605 0.04166666666666666 0  0.7500000000000597 0.04166666666666666 0  0.7777851165098603 0.04166666666666666 0  0.8043807145044185 0.04166666666666666 0  0.829672907550091 0.04166666666666666 0  0.8535533905933287 0.04166666666666666 0  0.8759199037395413 0.04166666666666666 0  0.8966766701456674 0.04166666666666666 0  0.9157348061513193 0.04166666666666666 0  0.9330127018922625 0.04166666666666666 0  0.9484363707663832 0.04166666666666666 0  0.961939766255678 0.04166666666666666 0  0.9734650647475827 0.04166666666666666 0  0.9829629131445586 0.04166666666666666 0  0.9903926402016341 0.04166666666666666 0  0.9957224306869181 0.04166666666666666 0  0.9989294616193084 0.04166666666666666 0  1 0.04166666666666666 0  0 0.0625 0  0.001070538380698371 0.0625 0  0.004277569313095364 0.0625 0  0.009607359798386061 0.0625 0  0.01703708685546806 0.0625 0  0.02653493525245065 0.0625 0  0.03806023374436157 0.0625 0  0.05156362923366253 0.0625 0  0.06698729810778931 0.0625 0  0.08426519384873815 0.0625 0  0.1033233298543955 0.0625 0  0.1240800962605269 0.0625 0  0.1464466094067445 0.0625 0  0.1703270924499866 0.0625 0  0.1956192854956637 0.0625 0  0.2222148834902257 0.0625 0  0.2500000000000299 0.0625 0  0.2788556548905322 0.0625 0  0.308658283817491 0.0625 0  0.339280267348458 0.0625 0  0.3705904774487813 0.0625 0  0.4024548389919803 0.0625 0  0.4347369038900211 0.0625 0  0.467298435384978 0.0625 0  0.5000000000000517 0.0625 0  0.5327015646151253 0.0625 0  0.5652630961100813 0.0625 0  0.5975451610081212 0.0625 0  0.6294095225513188 0.0625 0  0.6607197326516399 0.0625 0  0.6913417161826045 0.0625 0  0.7211443451095605 0.0625 0  0.7500000000000597 0.0625 0  0.7777851165098603 0.0625 0  0.8043807145044185 0.0625 0  0.829672907550091 0.0625 0  0.8535533905933287 0.0625 0  0.8759199037395413 0.0625 0  0.8966766701456674 0.0625 0  0.9157348061513193 0.0625 0  0.9330127018922625 0.0625 0  0.9484363707663832 0.0625 0  0.961939766255678 0.0625 0  0.9734650647475827 0.0625 0  0.9829629131445586 0.0625 0  0.9903926402016341 0.0625 0  0.9957224306869181 0.0625 0  0.9989294616193084 0.0625 0  1 0.0625 0  0 0.08333333333333333 0  0.001070538380698371 0.08333333333333333 0  0.004277569313095364 0.08333333333333333 0  0.009607359798386061 0.08333333333333333 0  0.01703708685546806 0.08333333333333333 0  0.02653493525245065 0.08333333333333333 0  0.03806023374436157 0.08333333333333333 0  0.05156362923366253 0.08333333333333333 0  0.06698729810778931 0.08333333333333333 0  0.08426519384873815 0.08333333333333333 0  0.1033233298543955 0.08333333333333333 0  0.1240800962605269 0.08333333333333333 0  0.1464466094067445 0.08333333333333333 0  0.1703270924499866 0.08333333333333333 0  0.1956192854956637 0.08333333333333333 0  0.2222148834902257 0.08333333333333333 0  0.2500000000000299 0.08333333333333333 0  0.2788556548905322 0.08333333333333333 0  0.308658283817491 0.08333333333333333 0  0.339280267348458 0.08333333333333333 0  0.3705904774487813 0.08333333333333333 0  0.4024548389919803 0.08333333333333333 0  0.4347369038900211 0.08333333333333333 0  0.467298435384978 0.08333333333333333 0  0.5000000000000517 0.08333333333333333 0  0.5327015646151253 0.08333333333333333 0  0.5652630961100813 0.08333333333333333 0  0.5975451610081212 0.08333333333333333 0  0.6294095225513188 0.08333333333333333 0  0.6607197326516399 0.08333333333333333 0  0.6913417161826045 0.08333333333333333 0  0.7211443451095605 0.08333333333333333 0  0.7500000000000597 0.08333333333333333 0  0.7777851165098603 0.08333333333333333 0  0.8043807145044185 0.08333333333333333 0  0.829672907550091 0.08333333333333333 0  0.8535533905933287 0.08333333333333333 0  0.8759199037395413 0.08333333333333333 0  0.8966766701456674 0.08333333333333333 0  0.9157348061513193 0.08333333333333333 0  0.9330127018922625 0.08333333333333333 0  0.9484363707663832 0.08333333333333333 0  0.961939766255678 0.08333333333333333 0  0.9734650647475827 0.08333333333333333 0  0.9829629131445586 0.08333333333333333 0  0.9903926402016341 0.08333333333333333 0  0.9957224306869181 0.08333333333333333 0  0.9989294616193084 0.08333333333333333 0  1 0.08333333333333333 0  0 0.1041666666666667 0  0.001070538380698371 0.1041666666666667 0  0.004277569313095364 0.1041666666666667 0  0.009607359798386061 0.1041666666666667 0  0.01703708685546806 0.1041666666666667 0  0.02653493525245065 0.1041666666666667 0  0.03806023374436157 0.1041666666666667 0  0.05156362923366253 0.1041666666666667 0  0.06698729810778931 0.1041666666666667 0  0.08426519384873815 0.1041666666666667 0  0.1033233298543955 0.1041666666666667 0  0.1240800962605269 0.1041666666666667 0  0.1464466094067445 0.1041666666666667 0  0.1703270924499866 0.1041666666666667 0  0.1956192854956637 0.1041666666666667 0  0.2222148834902257 0.1041666666666667 0  0.2500000000000299 0.1041666666666667 0  0.2788556548905322 0.1041666666666667 0  0.308658283817491 0.1041666666666667 0  0.339280267348458 0.1041666666666667 0  0.3705904774487813 0.1041666666666667 0  0.4024548389919803 0.1041666666666667 0  0.4347369038900211 0.1041666666666667 0  0.467298435384978 0.1041666666666667 0  0.5000000000000517 0.1041666666666667 0  0.5327015646151253 0.1041666666666667 0  0.5652630961100813 0.1041666666666667 0  0.5975451610081212 0.1041666666666667 0  0.62
[...]
<PointData  Scalars="f_3427244"> 
<DataArray  type="Float64"  Name="f_3427244"  format="ascii">1.0000000000000007e+00  9.9922231683852869e-01  9.9689238227731747e-01  9.9301884674399499e-01  9.8761445059876518e-01  9.8069497666086158e-01  9.7227958622978006e-01  9.6238637381983982e-01  9.5103053786160530e-01  9.3824183459070543e-01  9.2403226566373586e-01  9.0839580564408429e-01  8.9135651187745013e-01  8.7293195687670400e-01  8.5311881449558868e-01  8.3202310582552785e-01  8.0974737259395502e-01  7.8619618667359925e-01  7.6136881144872637e-01  7.3539081034582043e-01  7.0828055131401946e-01  6.8011035680716114e-01  6.5099526249843576e-01  6.2091970233462246e-01  5.8998104833686282e-01  5.5825389512205359e-01  5.2583046503091257e-01  4.9288342045942807e-01  4.5949371219593976e-01  4.2579474810994988e-01  3.9197554724569522e-01  3.5819195846618657e-01  3.2464395695075571e-01  2.9155950968475397e-01  2.5915303237838816e-01  2.2765579614760689e-01  1.9730646089789783e-01  1.6835408116420528e-01  1.4103986937931892e-01  1.1560113311371431e-01  9.2266415162061063e-02  7.1239961708702532e-02  5.2698912076911235e-02  3.6793458108515392e-02  2.3643318857143852e-02  1.3337991405859541e-02  5.9394140405195275e-03  1.4864764054178519e-03  -9.9552968424599066e-16  1.0000000000000002e+00  9.9922393710111446e-01  9.9689857994097275e-01  9.9303204501735887e-01  9.8763639785429458e-01  9.8072598759733998e-01  9.7231679296435769e-01  9.6242806846262907e-01  9.5107823973902883e-01  9.3828917239448784e-01  9.2407672148757669e-01  9.0843261589406199e-01  8.9137829935038848e-01  8.7294499519412061e-01  8.5311913893860902e-01  8.3197456305248307e-01  8.0965089620424480e-01  7.8607628420034914e-01  7.6121106902465552e-01  7.3520572997390699e-01  7.0806772937440199e-01  6.7985459145376592e-01  6.5071243910709253e-01  6.2062981659230154e-01  5.8968305754097350e-01  5.5795302193778595e-01  5.2552574526938822e-01  4.9259445941334151e-01  4.5923273088906297e-01  4.2555710846458594e-01  3.9177162825241990e-01  3.5803321899698565e-01  3.2453053967386181e-01  2.9149435696792492e-01  2.5913526016647653e-01  2.2768088564999575e-01  1.9736060764935875e-01  1.6843011028906693e-01  1.4113424378832748e-01  1.1570505077180347e-01  9.2368909856966636e-02  7.1333773014438856e-02  5.2778323397779658e-02  3.6854780014519889e-02  2.3685633358282401e-02  1.3362975580872172e-02  5.9508201778107643e-03  1.4893611412961348e-03  -9.7995251162907293e-16  1.0000000000000011e+00  9.9922725035910254e-01  9.9691149865819784e-01  9.9305981454302583e-01  9.8768256408894894e-01  9.8079151986412327e-01  9.7239821112354508e-01  9.6251602029801331e-01  9.5116741687225737e-01  9.3837615024262477e-01  9.2415454645196460e-01  9.0849432100360428e-01  8.9140615463026862e-01  8.7293795524124940e-01  8.5306688779438500e-01  8.3183133638433382e-01  8.0940297845319420e-01  7.8574389235386588e-01  7.6079722324442023e-01  7.3471205504200654e-01  7.0749872732297270e-01  6.7919654227878179e-01  6.4998284145716345e-01  6.1986162435214875e-01  5.8889553222851676e-01  5.5716228719001759e-01  5.2473737373555218e-01  4.9183463285829371e-01  4.5852894639445613e-01  4.2492688824123670e-01  3.9122497800494882e-01  3.5758794018903145e-01  3.2419489269667251e-01  2.9127055243634137e-01  2.5902232305016304e-01  2.2767339925726934e-01  1.9743438998002569e-01  1.6855335187402098e-01  1.4129456325433332e-01  1.1588654510127368e-01  9.2550718692998732e-02  7.1499649368658658e-02  5.2916697429359331e-02  3.6959640858411261e-02  2.3756683462682154e-02  1.3404330096114874e-02  5.9695379952676335e-03  1.4940786232746949e-03  -1.1890261058293926e-15  9.9999999999999989e-01  9.9922978173927279e-01  9.9692165101481567e-01  9.9308245836010500e-01  9.8772157546224570e-01  9.8084901492948029e-01  9.7247377721966810e-01  9.6260377391776974e-01  9.5125261288958030e-01  9.3844296099312952e-01  9.2419598106328027e-01  9.0850411890869698e-01  8.9136788536435518e-01  8.7283941754253835e-01  8.5289933735312928e-01  8.3156118598021955e-01  8.0900093529613248e-01  7.8521743656434240e-01  7.6015732663523927e-01  7.3395591860108111e-01  7.0663311442639209e-01  6.7822299910844386e-01  6.4891620050832943e-01  6.1873284726914390e-01  5.8773276436530730e-01  5.5599185969467546e-01  5.2358062080486001e-01  4.9071893564591718e-01  4.5748703399788054e-01  4.2399406091995601e-01  3.9041173433100440e-01  3.5689969486018025e-01  3.2365196116975592e-01  2.9087335203139902e-01  2.5876605402025216e-01  2.2754834717052574e-01  1.9741289239562040e-01  1.6860272684273256e-01  1.4139354697933695e-01  1.1601426672038717e-01  9.2685708689656976e-02  7.1625968991465297e-02  5.3023800583097636e-02  3.7042252790903028e-02  2.3813898155011625e-02  1.3438517021340376e-02  5.9854039809094728e-03  1.4981465574980723e-03  -8.3258133212115830e-16  1.0000000000000009e+00  9.9923192910393455e-01  9.9692940670225694e-01  9.9309759729492475e-01  9.8774436029840595e-01  9.8087874812432452e-01  9.7250934982266080e-01  9.6264274737741362e-01  9.5128484343206954e-01  9.3844884678353468e-01  9.2415610843326623e-01  9.0841120187981617e-01  8.9121273263491896e-01  8.7260563744855457e-01  8.5257630222501823e-01  8.3112787681686784e-01  8.0842577587941000e-01  7.8449651186190572e-01  7.5930161146004294e-01  7.3296424397428195e-01  7.0551299794280520e-01  6.7698592066441721e-01  6.4757479777775040e-01  6.1731545113853770e-01  5.8627135268106589e-01  5.5451839263500580e-01  5.2212627979461490e-01  4.8931264621590903e-01  4.5616442740824381e-01  4.2279369488881247e-01  3.8935065539391156e-01  3.5598062761928911e-01  3.2289326152290743e-01  2.9027448711673359e-01  2.5831846418465210e-01  2.2723902352442457e-01  1.9721624516376085e-01  1.6849225481316230e-01  1.4134744132597646e-01  1.1601215135143624e-01  9.2708379497938059e-02  7.1658554659165888e-02  5.3057790409799112e-02  3.7072915883214638e-02  2.3838291869789394e-02  1.3455025684552998e-02  5.9938890704589239e-03  1.5004783539804693e-03  -7.3014596862065864e-16  9.9999999999999978e-01  9.9923344314829465e-01  9.9693479448892908e-01  9.9310711475138036e-01  9.8775553094319135e-01  9.8088695626471933e-01  9.7250868037212068e-01  9.6262641624627643e-01  9.5124393091329162e-01  9.3836554458990773e-01  9.2400765422986708e-01  9.0818901577141142e-01  8.9091139564798516e-01  8.7220952853978073e-01  8.5207342121431628e-01  8.3050618310446489e-01  8.0765917528311515e-01  7.8357475382573050e-01  7.5823365100653850e-01  7.3175118728962152e-01  7.0416331266776144e-01  6.7551606064662872e-01  6.4599638785786029e-01  6.1565455660953383e-01  5.8456038200540839e-01  5.5279141041763880e-01  5.2041911417721298e-01  4.8765515246597962e-01  4.5459198642435911e-01  4.2134091713209382e-01  3.8803758986852493e-01  3.5481944727720288e-01  3.2189702549764265e-01  2.8944078336762108e-01  2.5763644844779454e-01  2.2669659165679890e-01  1.9679412451917577e-01  1.6817108451088952e-01  1.4110907988050778e-01  1.1584237484369857e-01  9.2593179020674779e-02  7.1581905283127925e-02  5.3008695667645413e-02  3.7043566778968140e-02  2.3822227961910549e-02  1.3447228797701414e-02  5.9908489907807222e-03  1.4997939889764755e-03  -5.8004569319593074e-16  9.9999999999999956e-01  9.9923330885863293e-01  9.9693351863722390e-01  9.9310186840533332e-01  9.8774124241225936e-01  9.8085647031670331e-01  9.7245402569209638e-01  9.6254072918475608e-01  9.5111850816357124e-01  9.3818033943180124e-01  9.2373929888605399e-01  9.0782715437661488e-01  8.9045114931722591e-01  8.7163736411664983e-01  8.5137920543409906e-01  8.2968416229189623e-01  8.0668991919239585e-01  7.8244714712476182e-01  7.5695539648361843e-01  7.3032510403804274e-01  7.0259917611111111e-01  6.7383257683375120e-01  6.4420454362790724e-01  6.1377851408130635e-01  5.8263105579911456e-01  5.5084238350083037e-01  5.1848787178432876e-01  4.8577085682174703e-01  4.5278712130112897e-01  4.1964605582288572e-01  3.8647454111902702e-01  3.5340577858542327e-01  3.2064239459820587e-01  2.8834359917260349e-01  2.5668865239678396e-01  2.2589036340961283e-01  1.9611930831721755e-01  1.6761585319343408e-01  1.4065808007074868e-01  1.1548715824324986e-01  9.2326210936417394e-02  7.1391470834550844e-02  5.2880881778579046e-02  3.6964428694869947e-02  2.3778244302198239e-02  1.3426017777076792e-02  5.9826242873748815e-03  1.4979020119377975e-03  -4.6299127682280790e-16  1.0000000000000004e+00  9.9923322828407235e-01  9.9693191081402688e-01  9.9309424660800394e-01  9.8771949967815009e-01  9.8080913459249675e-01  9.7236711535078280e-01  9.6239977944099453e-01  9.5091213711530620e-01  9.3789524353274467e-01  9.2335405219109434e-01  9.0732772461053468e-01  8.8983179889293595e-01  8.7088681527648937e-01  8.5049235867607786e-01  8.2866042111582761e-01  8.0551575253128960e-01  7.8111385467866190e-01  7.5547087106667721e-01  7.2869365461379743e-01  7.0083190465034706e-01  6.7194922331836915e-01  6.4221589987749728e-01  6.1170626595716293e-01  5.8050387912784596e-01  5.4869199851757666e-01  5.1635150392002871e-01  4.8367548493032519e-01  4.5076151415077637e-01  4.1771799952746808e-01  3.8466705248382183e-01  3.5173798823725133e-01  3.1912196387866726e-01  2.8697138534235933e-01  2.5546268588649573e-01  2.2480905055614073e-01  1.9518437835733576e-01  1.6682526386813773e-01  1.4000178719197556e-01  1.1495783528032399e-01  9.1919169199970438e-02  7.1095955740274372e-02  5.2681652543795893e-02  3.6842428245098348e-02  2.3712549407960627e-02  1.3396321003265084e-02  5.9722764186928880e-03  1.4958009223302168e-03  -1.0822147954338289e-15  9.9999999999999967e-01  9.9923271679615278e-01  9.9692906576008045e-01  9.9308449940248200e-01  9.8769357647485778e-01  9.8075267779581732e-01  9.7226192312966619e-01  9.6222525624223798e-01  9.5064751020084948e-01  9.3752727967417504e-01  9.2286563997052817e-01  9.0670190312542220e-01  8.8906119516821625e-01  8.6996436604021710e-01  8.4941998640956806e-01  8.2744242246008326e-01  8.0414314470366555e-01  7.7958165331122808e-01  7.5378833914869714e-01  7.2686673377422806e-01  6.9887288241081813e-01  6.6987834059117779e-01  6.4004412283804613e-01  6.0945263756077173e-01  5.7819380762545824e-01  5.4635544994975804e-01  5.1402400047790020e-01  4.8138099495343656e-01  4.4852534815213524e-01  4.1556596470244739e-01  3.8262286059932599e-01  3.4982153128626448e-01  3.1734122710631218e-01  2.8533068486783530e-01  2.5396648459978927e-01  2.2346191138657948e-01  1.9400164821420843e-01  1.6581443485302935e-01  1.3916111418252142e-01  1.1427720824682273e-01  9.1389963412019201e-02  7.0706183231263181e-02  5.2413053329429436e-02  3.6671878371412912e-02  2.3614919522648079e-02  1.3347829746995735e-02  5.9531730895734797e-03  1.4914426426158845e-03  -2.7945416767662613e-16  9.9999999999999867e-01  9.9923013199776434e-01  9.9691795691528340e-01  9.9305671420080688e-01  9.8763764995606818e-01  9.8065314620030464e-01  9.7209971987970034e-01  9.6197920568484552e-01  9.5029705423319044e-01  9.3705842643040282e-01  9.2226935024673729e-01  9.0595351903231969e-01  8.8814870827981962e-01  8.6888362231296445e-01  8.4817701559861125e-01  8.2604538486415358e-01  8.0258618257027892e-01  7.7786384893250393e-01  7.5192102465640576e-01  7.2485771713887759e-01  6.9673557703980804e-01  6.6763322137457837e-01  6.3770238372468824e-01  6.0703142066784088e-01  5.7571459065007469e-01  5.4384634908455942e-01  5.1151807507520175e-01  4.7889908860321811e-01  4.4608994495028087e-01  4.1320144082127042e-01  3.8035344632565216e-01  3.4766864195091035e-01  3.1531561448813694e-01  2.8344107529758100e-01  2.5222395741549231e-01  2.2187606232525270e-01  1.9259788723176979e-01  1.6460810485550995e-01  1.3815166386022817e-01  1.1345941228204828e-01  9.0750100330054276e-02  7.0229192554536302e-02  5.2078622294062488e-02  3.6454153284129369e-02  2.3485847774433712e-02  1.3280837717828956e-02  5.9254796360587031e-03  1.4848575011060564e-03  -1.3678439920249466e-15  1.0000000000000016e+00  9.9922663102704423e-01  9.9690275177125909e-01  9.9301863933594525e-01  9.8756208246525212e-01  9.8052221884262258e-01  9.7189278672614166e-01  9.6167405099239145e-01  9.4987263685875223e-01  9.3649942087032356e-01  9.2156793325193243e-01  9.0509751066000388e-01  8.8711809088486404e-01  8.6766875317206205e-01  8.4678637631311848e-01  8.2449110370637635e-01  8.0086495218055331e-01  7.7597926258622185e-01  7.4988679352046839e-01  7.2268359798434412e-01  6.9443615165131534e-01  6.6522902165652087e-01  6.3520496645614444e-01  6.0445675219817740e-01  5.7308069305987863e-01  5.4117906049057618e-01  5.0884760933796336e-01  4.7624346238459664e-01  4.4346969922361484e-01  4.1064006715713841e-01  3.7787556030156955e-01  3.4529769287178669e-01  3.1306695292876374e-01  2.8132902030006718e-01  2.5026685090725415e-01  2.2008839008218931e-01  1.9100870870600978e-01  1.6323755443212970e-01  1.3699826664520406e-01  1.1252002539882770e-01  9.0015106197760333e-02  6.9681117952856308e-02  5.1693405046234597e-02  3.6202070190003398e-02  2.3335143797857259e-02  1.3201690208538229e-02  5.8923651047300832e-03  1.4769328655357048e-03  -1.1889552933690326e-15  1.0000000000000002e+00  9.9922293253009797e-01  9.9688695601613353e-01  9.9297967182148816e-01  9.8748474303902345e-01  9.8038680033516956e-01  9.7167593990177004e-01  9.6135070894905039e-01  9.4941875821208532e-01  9.3589531592310071e-01  9.2080096876012385e-01  9.0415914027326394e-01  8.8599732588686220e-01  8.6635319551565493e-01  8.4527754683860756e-01  8.2280536374670621e-01  7.9900347908913916e-01  7.7395073448257690e-01  7.4770721992986378e-01  7.2036449249845103e-01  6.9199325883989327e-01  6.6268280147419967e-01  6.3256738465526785e-01  6.0174324389029554e-01  5.7030727778868229e-01  5.3836946486539727e-01  5.0602882165218310e-01  4.7343093565370425e-01  4.4068326059917040e-01  4.0790264252525404e-01  3.7521193804654079e-01  3.4273330177279948e-01  3.1062232607729029e-01  2.7902525271403206e-01  2.4812815346303968e-01  2.1813700980882847e-01  1.8926861222505628e-01  1.6173614635298805e-01  1.3573669051552059e-01  1.1149051336096333e-01  8.9209058801064375e-02  6.9080785536326614e-02  5.1271897607683234e-02  3.5926667341490845e-02  2.3171074373205709e-02  1.3115931335596440e-02  5.8565681558624726e-03  1.4683370590211429e-03  -6.9864459473347093e-16  1.0000000000000011e+00  9.9921952140599590e-01  9.9687222174799828e-01  9.9294268458585955e-01  9.8740973599760651e-01  9.8025266023008395e-01  9.7145753550699365e-01  9.6102121354809411e-01  9.4895215770807040e-01  9.3526885681599381e-01  9.1999684296947637e-01  9.0316529193922845e-01  8.8480704209074434e-01  8.6496273782342792e-01  8.4368150769448358e-01  8.2101394338659972e-01  7.9702749367802672e-01  7.7180343044991917e-01  7.4540637021929645e-01  7.1792284512970184e-01  6.8942758395731618e-01  6.6001346365107660e-01  6.2980649047600623e-01  5.9890594725379265e-01  5.6741025159113578e-01  5.3543444904443416e-01  5.0307987503506923e-01  4.7048126474232693e-01  4.3775339165535815e-01  4.0501451921482623e-01  3.7239050754593067e-01  3.4000631511198398e-01  3.0801492181278284e-01  2.7656619072061100e-01  2.4584483452577077e-01  2.1606041034602105e-01  1.8741404674712825e-01  1.6012374428574228e-01  1.3438388075757882e-01  1.1039367317107460e-01  8.8352406366123737e-02  6.8442542859496774e-02  5.0822529882222918e-02  3.5631515522092129e-02  2.2994391551210924e-02  1.3023669977674955e-02  5.8184516213709934e-03  1.4593399354971910e-03  -7.3607563843127842e-16  9.9999999999999944e-01  9.9921539559296846e-01  9.9685437224074902e-01  9.9289776034124333e-01  9.8731998394443976e-01  9.8009620463868030e-01  9.7120919033786823e-01  9.6065407491395483e-01  9.4843985806383435e-01  9.3458793238242399e-01  9.1912875164913033e-01  9.0209793924386183e-01  8.8353473559911622e-01  8.6348436763851288e-01  8.4199882974765738e-01  8.1913490395576816e-01  7.9496188368021270e-01  7.6956321773361835e-01  7.4300950840216029e-01  7.1538249376684526e-01  6.8676132592283701e-01  6.5724165283623470e-01  6.2694133096578064e-01  5.9596240156143865e-01  5.6440640045222057e-01  5.3239004663471201e-01  5.0001859376055524e-01  4.6741539988707631e-01  4.3470448616264923e-01  4.0200314752255406e-01  3.6944203559829109e-01  3.3715153367788359e-01  3.0528102727543460e-01  2.7398890249693064e-01  2.4345473956013841e-01  2.1388770213301248e-01  1.8548085110799745e-01  1.5843375216377226e-01  1.3295725514952056e-01  1.0923815873923866e-01  8.7455369504638059e-02  6.7775572955807648e-02  5.0350439832827817e-02  3.5316457128214455e-02  2.2799991292075206e-02  1.2917637379106202e-02  5.7724757313448762e-03  1.4480672604911173e-03  -1.3127575863307554e-15  1.0000000000000000e+00  9.9921048957510306e-01  9.9683346994176703e-01  9.9284620395297629e-01  9.8721873001636606e-01  9.7992232499229726e-01  9.7093692486511396e-01  9.6025621309356379e-01  9.4788974773710466e-01  9.3386189004229037e-01  9.1820821694313282e-01  9.0097107633114260e-01  8.8219672481421907e-01  8.6193581918691109e-01  8.4024479284105591e-01  8.1718551745419621e-01  7.9282871227839802e-01  7.6725540999691277e-01  7.4054173114580790e-01  7.1276764194828746e-01  6.8401751703119884e-01  6.5438918567322879e-01  6.2399269003302005e-01  5.9293256812232764e-01  5.6131463424102501e-01  5.2925415900616779e-01  4.9686143877127009e-01  4.6425486201851357e-01  4.3156037250465940e-01  3.9889556777625451e-01  3.6639735383262956e-01  3.3420357551014968e-01  3.0245783642573942e-01  2.7132793156496843e-01  2.4099133994445973e-01  2.1164836016275604e-01  1.8349178453451170e-01  1.5670959973047704e-01  1.3150215803542645e-01  1.0805713033018113e-01  8.6538027718211633e-02  6.7096425740290830e-02  4.9873374281253789e-02  3.5001196598756945e-02  2.2607018460420784e-02  1.2812454750049466e-02  5.7264829557203680e-03  1.4366186265194303e-03  -5.0079826683402882e-16  9.9999999999999933e-01  9.9920474666170223e-01  9.9680962894993852e-01  9.9278946660463385e-01  9.8711076298362732e-01  9.7974086415397255e-01  9.7065632364467636e-01  9.5984891461835342e-01  9.4732846313703256e-01  9.3312211179228310e-01  9.1727053595837071e-01  8.9982286083244911e-01  8.8083270932860958e-01  8.6035712517331309e-01  8.3845740238670619e-01  8.1519949451101159e-01  7.9065556370107537e-01  7.6490487992028655e-01  7.3802671021244348e-01  7.1010191817605028e-01  6.8121926527708287e-01  6.5147836050329178e-01  6.2098242537078585e-01  5.8983813868954704e-01  5.5815567515884112e-01  5.2604741754673490e-01  4.9362952154061929e-01  4.6102135564800295e-01  4.2834459172626682e-01  3.9571918718730015e-01  3.6328638657673917e-01  3.3119216889758746e-01  2.9958055229579789e-01  2.6861956963051925e-01  2.3848609748233221e-01  2.0937421600368725e-01  1.8147511497590099e-01  1.5497314145382976e-01  1.3005171958733006e-01  1.0688455818820970e-01  8.5627990305250423e-02  6.6423369238098121e-02  4.9402799834462878e-02  3.4693835350130348e-02  2.2423193754851582e-02  1.2715443583466103e-02  5.6853737653665753e-03  1.4265771324126360e-03  -6.9263093926858987e-16  1.0000000000000002e+00  9.9919850392736809e-01  9.9678415434606160e-01  9.9272991690259915e-01  9.8699915961112927e-01  9.7955531157570463e-01  9.7037129605317640e-01  9.5943680495255579e-01  9.4676191821628852e-01  9.3237649689515489e-01  9.1632612298534344e-01  8.9866648889124612e-01  8.7945853895410109e-01  8.5876601113692375e-01  8.3665522412435944e-01  8.1319567641946822e-01  7.8846131156668342e-01  7.6253108944476033e-01  7.3548578506396889e-01  7.0740785874203582e-01  6.7838906653217890e-01  6.4853125733500339e-01  6.1793271679023942e-01  5.8670148846166092e-01  5.5495154917016376e-01  5.2279284100758661e-01  4.9034775439429823e-01  4.5773865822528115e-01  4.2508204331408006e-01  3.9250298667901412e-01  3.6014132541083638e-01  3.2814739099659679e-01  2.9667604520883184e-01  2.6588985734488596e-01  2.3596199564782377e-01  2.0708219201202685e-01  1.7943986539286921e-01  1.5321612440044052e-01  1.2858291960472862e-01  1.0569848056641729e-01  8.4706440343485970e-02  6.5738424760132516e-02  4.8919565531676444e-02  3.4374436519293464e-02  2.222998897573553