<?xml version="1.0"?>
<VTKFile type="UnstructuredGrid"  version="0.1"  >
<UnstructuredGrid>
<Piece  NumberOfPoints="2401" NumberOfCells="4608">
<Points>
<DataArray  type="Float64"  NumberOfComponents="3"  format="ascii">0 0 0  0.001070538380698371 0 0  0.004277569313095364 0 0  0.009607359798386061 0 0  0.01703708685546806 0 0  0.02653493525245065 0 0  0.03806023374436157 0 0  0.05156362923366253 0 0  0.06698729810778931 0 0  0.08426519384873815 0 0  0.1033233298543955 0 0  0.1240800962605269 0 0  0.1464466094067445 0 0  0.1703270924499866 0 0  0.1956192854956637 0 0  0.2222148834902257 0 0  0.2500000000000299 0 0  0.2788556548905322 0 0  0.308658283817491 0 0  0.339280267348458 0 0  0.3705904774487813 0 0  0.4024548389919803 0 0  0.4347369038900211 0 0  0.467298435384978 0 0  0.5000000000000517 0 0  0.5327015646151253 0 0  0.5652630961100813 0 0  0.5975451610081212 0 0  0.6294095225513188 0 0  0.6607197326516399 0 0  0.6913417161826045 0 0  0.7211443451095605 0 0  0.7500000000000597 0 0  0.7777851165098603 0 0  0.8043807145044185 0 0  0.829672907550091 0 0  0.8535533905933287 0 0  0.8759199037395413 0 0  0.8966766701456674 0 0  0.9157348061513193 0 0  0.9330127018922625 0 0  0.9484363707663832 0 0  0.961939766255678 0 0  0.9734650647475827 0 0  0.9829629131445586 0 0  0.9903926402016341 0 0  0.9957224306869181 0 0  0.9989294616193084 0 0  1 0 0  0 0.02083333333333333 0  0.001070538380698371 0.02083333333333333 0  0.004277569313095364 0.02083333333333333 0  0.009607359798386061 0.02083333333333333 0  0.01703708685546806 0.02083333333333333 0  0.02653493525245065 0.02083333333333333 0  0.03806023374436157 0.02083333333333333 0  0.05156362923366253 0.02083333333333333 0  0.06698729810778931 0.02083333333333333 0  0.08426519384873815 0.02083333333333333 0  0.1033233298543955 0.02083333333333333 0  0.1240800962605269 0.02083333333333333 0  0.1464466094067445 0.02083333333333333 0  0.1703270924499866 0.02083333333333333 0  0.1956192854956637 0.02083333333333333 0  0.2222148834902257 0.02083333333333333 0  0.2500000000000299 0.02083333333333333 0  0.2788556548905322 0.02083333333333333 0  0.308658283817491 0.02083333333333333 0  0.339280267348458 0.02083333333333333 0  0.3705904774487813 0.02083333333333333 0  0.4024548389919803 0.02083333333333333 0  0.4347369038900211 0.02083333333333333 0  0.467298435384978 0.02083333333333333 0  0.5000000000000517 0.02083333333333333 0  0.5327015646151253 0.02083333333333333 0  0.5652630961100813 0.02083333333333333 0  0.5975451610081212 0.02083333333333333 0  0.6294095225513188 0.02083333333333333 0  0.6607197326516399 0.02083333333333333 0  0.6913417161826045 0.02083333333333333 0  0.7211443451095605 0.02083333333333333 0  0.7500000000000597 0.02083333333333333 0  0.7777851165098603 0.02083333333333333 0  0.8043807145044185 0.02083333333333333 0  0.829672907550091 0.02083333333333333 0  0.8535533905933287 0.02083333333333333 0  0.8759199037395413 0.02083333333333333 0  0.8966766701456674 0.02083333333333333 0  0.9157348061513193 0.02083333333333333 0  0.9330127018922625 0.02083333333333333 0  0.9484363707663832 0.02083333333333333 0  0.961939766255678 0.02083333333333333 0  0.9734650647475827 0.02083333333333333 0  0.9829629131445586 0.02083333333333333 0  0.9903926402016341 0.02083333333333333 0  0.9957224306869181 0.02083333333333333 0  0.9989294616193084 0.02083333333333333 0  1 0.02083333333333333 0  0 0.04166666666666666 0  0.001070538380698371 0.04166666666666666 0  0.004277569313095364 0.04166666666666666 0  0.009607359798386061 0.04166666666666666 0  0.01703708685546806 0.04166666666666666 0  0.02653493525245065 0.04166666666666666 0  0.03806023374436157 0.04166666666666666 0  0.05156362923366253 0.04166666666666666 0  0.06698729810778931 0.04166666666666666 0  0.08426519384873815 0.04166666666666666 0  0.1033233298543955 0.04166666666666666 0  0.1240800962605269 0.04166666666666666 0  0.1464466094067445 0.04166666666666666 0  0.1703270924499866 0.04166666666666666 0  0.1956192854956637 0.04166666666666666 0  0.2222148834902257 0.04166666666666666 0  0.2500000000000299 0.04166666666666666 0  0.2788556548905322 0.04166666666666666 0  0.308658283817491 0.04166666666666666 0  0.339280267348458 0.04166666666666666 0  0.3705904774487813 0.04166666666666666 0  0.4024548389919803 0.04166666666666666 0  0.4347369038900211 0.04166666666666666 0  0.467298435384978 0.04166666666666666 0  0.5000000000000517 0.04166666666666666 0  0.5327015646151253 0.04166666666666666 0  0.5652630961100813 0.04166666666666666 0  0.5975451610081212 0.04166666666666666 0  0.6294095225513188 0.04166666666666666 0  0.6607197326516399 0.04166666666666666 0  0.6913417161826045 0.04166666666666666 0  0.7211443451095605 0.04166666666666666 0  0.7500000000000597 0.04166666666666666 0  0.7777851165098603 0.04166666666666666 0  0.8043807145044185 0.04166666666666666 0  0.829672907550091 0.04166666666666666 0  0.8535533905933287 0.04166666666666666 0  0.8759199037395413 0.04166666666666666 0  0.8966766701456674 0.04166666666666666 0  0.9157348061513193 0.04166666666666666 0  0.9330127018922625 0.04166666666666666 0  0.9484363707663832 0.04166666666666666 0  0.961939766255678 0.04166666666666666 0  0.9734650647475827 0.04166666666666666 0  0.9829629131445586 0.04166666666666666 0  0.9903926402016341 0.04166666666666666 0  0.9957224306869181 0.04166666666666666 0  0.9989294616193084 0.04166666666666666 0  1 0.04166666666666666 0  0 0.0625 0  0.001070538380698371 0.0625 0  0.004277569313095364 0.0625 0  0.009607359798386061 0.0625 0  0.01703708685546806 0.0625 0  0.02653493525245065 0.0625 0  0.03806023374436157 0.0625 0  0.05156362923366253 0.0625 0  0.06698729810778931 0.0625 0  0.08426519384873815 0.0625 0  0.1033233298543955 0.0625 0  0.1240800962605269 0.0625 0  0.1464466094067445 0.0625 0  0.1703270924499866 0.0625 0  0.1956192854956637 0.0625 0  0.2222148834902257 0.0625 0  0.2500000000000299 0.0625 0  0.2788556548905322 0.0625 0  0.308658283817491 0.0625 0  0.339280267348458 0.0625 0  0.3705904774487813 0.0625 0  0.4024548389919803 0.0625 0  0.4347369038900211 0.0625 0  0.467298435384978 0.0625 0  0.5000000000000517 0.0625 0  0.5327015646151253 0.0625 0  0.5652630961100813 0.0625 0  0.5975451610081212 0.0625 0  0.6294095225513188 0.0625 0  0.6607197326516399 0.0625 0  0.6913417161826045 0.0625 0  0.7211443451095605 0.0625 0  0.7500000000000597 0.0625 0  0.7777851165098603 0.0625 0  0.8043807145044185 0.0625 0  0.829672907550091 0.0625 0  0.8535533905933287 0.0625 0  0.8759199037395413 0.0625 0  0.8966766701456674 0.0625 0  0.9157348061513193 0.0625 0  0.9330127018922625 0.0625 0  0.9484363707663832 0.0625 0  0.961939766255678 0.0625 0  0.9734650647475827 0.0625 0  0.9829629131445586 0.0625 0  0.9903926402016341 0.0625 0  0.9957224306869181 0.0625 0  0.9989294616193084 0.0625 0  1 0.0625 0  0 0.08333333333333333 0  0.001070538380698371 0.08333333333333333 0  0.004277569313095364 0.08333333333333333 0  0.009607359798386061 0.08333333333333333 0  0.01703708685546806 0.08333333333333333 0  0.02653493525245065 0.08333333333333333 0  0.03806023374436157 0.08333333333333333 0  0.05156362923366253 0.08333333333333333 0  0.06698729810778931 0.08333333333333333 0  0.08426519384873815 0.08333333333333333 0  0.1033233298543955 0.08333333333333333 0  0.1240800962605269 0.08333333333333333 0  0.1464466094067445 0.08333333333333333 0  0.1703270924499866 0.08333333333333333 0  0.1956192854956637 0.08333333333333333 0  0.2222148834902257 0.08333333333333333 0  0.2500000000000299 0.08333333333333333 0  0.2788556548905322 0.08333333333333333 0  0.308658283817491 0.08333333333333333 0  0.339280267348458 0.08333333333333333 0  0.3705904774487813 0.08333333333333333 0  0.4024548389919803 0.08333333333333333 0  0.4347369038900211 0.08333333333333333 0  0.467298435384978 0.08333333333333333 0  0.5000000000000517 0.08333333333333333 0  0.5327015646151253 0.08333333333333333 0  0.5652630961100813 0.08333333333333333 0  0.5975451610081212 0.08333333333333333 0  0.6294095225513188 0.08333333333333333 0  0.6607197326516399 0.08333333333333333 0  0.6913417161826045 0.08333333333333333 0  0.7211443451095605 0.08333333333333333 0  0.7500000000000597 0.08333333333333333 0  0.7777851165098603 0.08333333333333333 0  0.8043807145044185 0.08333333333333333 0  0.829672907550091 0.08333333333333333 0  0.8535533905933287 0.08333333333333333 0  0.8759199037395413 0.08333333333333333 0  0.8966766701456674 0.08333333333333333 0  0.9157348061513193 0.08333333333333333 0  0.9330127018922625 0.08333333333333333 0  0.9484363707663832 0.08333333333333333 0  0.961939766255678 0.08333333333333333 0  0.9734650647475827 0.08333333333333333 0  0.9829629131445586 0.08333333333333333 0  0.9903926402016341 0.08333333333333333 0  0.9957224306869181 0.08333333333333333 0  0.9989294616193084 0.08333333333333333 0  1 0.08333333333333333 0  0 0.1041666666666667 0  0.001070538380698371 0.1041666666666667 0  0.004277569313095364 0.1041666666666667 0  0.009607359798386061 0.1041666666666667 0  0.01703708685546806 0.1041666666666667 0  0.02653493525245065 0.1041666666666667 0  0.03806023374436157 0.1041666666666667 0  0.05156362923366253 0.1041666666666667 0  0.06698729810778931 0.1041666666666667 0  0.08426519384873815 0.1041666666666667 0  0.1033233298543955 0.1041666666666667 0  0.1240800962605269 0.1041666666666667 0  0.1464466094067445 0.1041666666666667 0  0.1703270924499866 0.1041666666666667 0  0.1956192854956637 0.1041666666666667 0  0.2222148834902257 0.1041666666666667 0  0.2500000000000299 0.1041666666666667 0  0.2788556548905322 0.1041666666666667 0  0.308658283817491 0.1041666666666667 0  0.339280267348458 0.1041666666666667 0  0.3705904774487813 0.1041666666666667 0  0.4024548389919803 0.1041666666666667 0  0.4347369038900211 0.1041666666666667 0  0.467298435384978 0.1041666666666667 0  0.5000000000000517 0.1041666666666667 0  0.5327015646151253 0.1041666666666667 0  0.5652630961100813 0.1041666666666667 0  0.5975451610081212 0.1041666666666667 0  0.62
[...]
<PointData  Scalars="f_415766"> 
<DataArray  type="Float64"  Name="f_415766"  format="ascii">8.7237457444618798e+00  8.7396648741622069e+00  8.7161269238747252e+00  8.8721859239447856e+00  9.3790468739667219e+00  1.0178812603039564e+01  1.0644594502624333e+01  1.0996969850656912e+01  1.1659951973166974e+01  1.2138681754539336e+01  1.2702859737203969e+01  1.3800314507806448e+01  1.4343078255832300e+01  1.4720697807899187e+01  1.5142358261450321e+01  1.5255639684987102e+01  1.5038748567397016e+01  1.4648562845419386e+01  1.4287132977862690e+01  1.3821231811064132e+01  1.3049755052502663e+01  1.2203928493608192e+01  1.1298528419866708e+01  1.0374219879608464e+01  9.4454559347660183e+00  8.4623794513022830e+00  7.4581945267226253e+00  6.4654077138625539e+00  5.6651544878036235e+00  4.8796390601308746e+00  4.2102084635766914e+00  3.7807638408976088e+00  3.3383116949426275e+00  3.0899967738518326e+00  3.0242537939788465e+00  3.0029880063262597e+00  3.0697247383457769e+00  3.1561070181439614e+00  3.2167651137585356e+00  3.3725882742427404e+00  3.5150936170071270e+00  3.5864136997992895e+00  3.6498317920829710e+00  3.7204370852831468e+00  3.7640355280148619e+00  3.8623572914607194e+00  3.9610177732361040e+00  3.9870103856726407e+00  3.9965642970281827e+00  8.7858304176132727e+00  8.7842845229565913e+00  8.7834693390730276e+00  9.0277536158738680e+00  9.4093889253383924e+00  1.0256587329716059e+01  1.0741218515385992e+01  1.1141439311413224e+01  1.1827676471161064e+01  1.2321272878048578e+01  1.2844491767340172e+01  1.3892208163397127e+01  1.4503969152016781e+01  1.4977887881244135e+01  1.5358693776446041e+01  1.5452960294331881e+01  1.5296757667728659e+01  1.4932573006729127e+01  1.4470834470638579e+01  1.4050835966779546e+01  1.3265679378299206e+01  1.2459191694438287e+01  1.1392630024610968e+01  1.0515463279178331e+01  9.5476410808189289e+00  8.5384829633879971e+00  7.5176330532109841e+00  6.4575270469960051e+00  5.6846934082747831e+00  4.9555283557449359e+00  4.1944042854276544e+00  3.8122997155782183e+00  3.4113361148461148e+00  3.0947010838537299e+00  3.0462479037603862e+00  3.0373450103740574e+00  3.1044018361586883e+00  3.2092298249141011e+00  3.3772054693742550e+00  3.6358304499613681e+00  3.7931366168680007e+00  3.8837495055085749e+00  3.9604584038450503e+00  4.0592057839149440e+00  4.1789621053134445e+00  4.3121297069560471e+00  4.4038076357262339e+00  4.4243681087252158e+00  4.4213855952673766e+00  8.9936740157994013e+00  8.9944541443593149e+00  9.0226799383838987e+00  9.2480964433357737e+00  9.6253917043616077e+00  1.0455332506851462e+01  1.1033447768394431e+01  1.1456177721598358e+01  1.2205915329310644e+01  1.2735638127555738e+01  1.3301047162116541e+01  1.4393028043043072e+01  1.5134502601533034e+01  1.5636764001367833e+01  1.6025174232064771e+01  1.6158928089005567e+01  1.6154896578228772e+01  1.5838465176369779e+01  1.5430619085131129e+01  1.4922111897059047e+01  1.4053209655893442e+01  1.3057662675727119e+01  1.2041925253925552e+01  1.0978873577874976e+01  1.0041569014869092e+01  9.0128929625115788e+00  7.9767331693484209e+00  6.7973049244901853e+00  5.8151607235914762e+00  5.0821911653782381e+00  4.2337112399919947e+00  3.8691590696620533e+00  3.5281822346827028e+00  3.1440937944619791e+00  3.1350600212104229e+00  3.1646654378562675e+00  3.3104450223728441e+00  3.4907692693856962e+00  3.8037165685465593e+00  4.1242911115357552e+00  4.3505555900994723e+00  4.5364567499800881e+00  4.6955639108708089e+00  4.8301818169812814e+00  4.9452511397600505e+00  5.0551902978124881e+00  5.1331472770353681e+00  5.1637961956921572e+00  5.1708308564000243e+00  9.5824472558752998e+00  9.5795285946562085e+00  9.6012489522034787e+00  9.7286509614020442e+00  9.9483217683320841e+00  1.0473189737343510e+01  1.1362198410914235e+01  1.1947288386646967e+01  1.2724863949421403e+01  1.3348963297648297e+01  1.4008675833102272e+01  1.5216938155791590e+01  1.6211141927453326e+01  1.6852867645858986e+01  1.6925711708859360e+01  1.7041990915523272e+01  1.7087871459167182e+01  1.6702891593985647e+01  1.6059282211243332e+01  1.5467524885268933e+01  1.4786924081255115e+01  1.3729283408481546e+01  1.2457844252030263e+01  1.1382005041735232e+01  1.0280904138069570e+01  9.2436321469361129e+00  8.2330859247720927e+00  7.1887717428829143e+00  6.0918721330406491e+00  5.2154648111146269e+00  4.3165909918395124e+00  3.9454965944613667e+00  3.6230883580425912e+00  3.2380727410123131e+00  3.2774893577867532e+00  3.3671438135676284e+00  3.6169306655307500e+00  3.8593012564752658e+00  4.2543033182172199e+00  4.6266946713814381e+00  4.9201583547312957e+00  5.1654185654804623e+00  5.3967656346951065e+00  5.6590563795130961e+00  5.9562385842718326e+00  6.2215981233074862e+00  6.3939960572456300e+00  6.4268138702745503e+00  6.4200229967853222e+00  1.0417076998362148e+01  1.0414980305322652e+01  1.0436579438509197e+01  1.0507452157168009e+01  1.0654875165621593e+01  1.1013597945783092e+01  1.1737551013225255e+01  1.2788295911414311e+01  1.3518825695601070e+01  1.4214976164915564e+01  1.5049127885779010e+01  1.6305510809824408e+01  1.7332688671598316e+01  1.7938122503293194e+01  1.8429941002053578e+01  1.8337179834580095e+01  1.8059049312759409e+01  1.7458819760179097e+01  1.6746504316722767e+01  1.6029078067943782e+01  1.5277924104685033e+01  1.4242032976565383e+01  1.3063840658176844e+01  1.1780306036098931e+01  1.0539270276322442e+01  9.3605514483359116e+00  8.4047310322747872e+00  7.4311448734585985e+00  6.3788820843205194e+00  5.3568984978880998e+00  4.4397409274499342e+00  4.0390554575543316e+00  3.7269963188075526e+00  3.3813382828460798e+00  3.4850525811434143e+00  3.6525975578845666e+00  3.9966452083552846e+00  4.4022366510785194e+00  5.0721293771811951e+00  5.6203126847361498e+00  5.9929346306503160e+00  6.3033758764597438e+00  6.6416614860525698e+00  7.0231065120748717e+00  7.4443980499943985e+00  7.7804374483603196e+00  7.9348415640440111e+00  7.9636576171750919e+00  7.9671133275700665e+00  1.1177670724426456e+01  1.1178940593762501e+01  1.1197495628083155e+01  1.1281758871192098e+01  1.1484135092864786e+01  1.1906948003796799e+01  1.2480568007451541e+01  1.3806425541554367e+01  1.4522497419218775e+01  1.5265002485492232e+01  1.6279551080081724e+01  1.7548167314821946e+01  1.8813537574785766e+01  1.9228056512213058e+01  1.9615470915546645e+01  1.9828467383653489e+01  1.9662139406223346e+01  1.8288115964003623e+01  1.7173981492082518e+01  1.6318941055198838e+01  1.5504447267125659e+01  1.4527021924876735e+01  1.3407157397721383e+01  1.2378903879147007e+01  1.0880598308340964e+01  9.5112264805746403e+00  8.6191001959737026e+00  7.6887950480733922e+00  6.6594397665504710e+00  5.6078605082576560e+00  4.6513845224259009e+00  4.1552021310676164e+00  3.8708006904958485e+00  3.6242104670046027e+00  3.8337331133439170e+00  4.1169528824347221e+00  4.6226610093655482e+00  5.2604007642844595e+00  6.0391485729560168e+00  6.6188684302011440e+00  7.0293023900637177e+00  7.3943061141914059e+00  7.7990211595582357e+00  8.2805929219355043e+00  8.7720936730040275e+00  9.1332643897534904e+00  9.2674117536877372e+00  9.2871886241535435e+00  9.2865226329217769e+00  1.2272351926852545e+01  1.2274221667983911e+01  1.2293968355464230e+01  1.2373750194402245e+01  1.2549214579142127e+01  1.2874087487256380e+01  1.3391461888056529e+01  1.4403145788620414e+01  1.5347963627279951e+01  1.6140475925240935e+01  1.7326629580521097e+01  1.8573418944548660e+01  2.0011500759826703e+01  2.0602217384403836e+01  2.0660424288630470e+01  2.0783487339467147e+01  2.0490384982418902e+01  1.9713238279802741e+01  1.7942209230115765e+01  1.6924087229515592e+01  1.5980594836283405e+01  1.4940414856209692e+01  1.3914912495278571e+01  1.2974967949316195e+01  1.1349158572330106e+01  9.7769754437038490e+00  8.7479262278981693e+00  7.8374784498087813e+00  6.7564129278970633e+00  5.7087573878256288e+00  4.8631543120238732e+00  4.3402476305212616e+00  4.0554547121100830e+00  3.9206171419394402e+00  4.4109664181876376e+00  4.8625854176709833e+00  5.4275234904943943e+00  6.2573334849207001e+00  7.1699374852158622e+00  7.9130251952788750e+00  8.4683743325971648e+00  8.9099118794367396e+00  9.2899892069495369e+00  9.8015819960583457e+00  1.0300858648036188e+01  1.0567024260382915e+01  1.0643342129629143e+01  1.0663394587276491e+01  1.0669381225075050e+01  1.3209981175101781e+01  1.3193728811125448e+01  1.3207063580374824e+01  1.3269219554617203e+01  1.3404504392482083e+01  1.3665313040507003e+01  1.4126067519831139e+01  1.4959467698154864e+01  1.6140766594168397e+01  1.7044683718965622e+01  1.8344481371510302e+01  1.9691714792171879e+01  2.1096793335054159e+01  2.1494770385488003e+01  2.1662946651888568e+01  2.1461459495464300e+01  2.1113008822149251e+01  2.0489765504876264e+01  1.9288272605556131e+01  1.8017673395018715e+01  1.6850282306528378e+01  1.5791586661846944e+01  1.4559899521397824e+01  1.3409810585874547e+01  1.1947208991902475e+01  1.0445114296886679e+01  9.0220609335141919e+00  7.9410358776564172e+00  6.8260398960589139e+00  5.7467011397754941e+00  4.9318845918233318e+00  4.5254000184539356e+00  4.2399931046621697e+00  4.1881187040267180e+00  5.0099223358405371e+00  5.5956184467095973e+00  6.0919616166038697e+00  7.0064214729387695e+00  7.9933282763863707e+00  8.8264009687606837e+00  9.5116664019855612e+00  1.0128144521791679e+01  1.0752544902214337e+01  1.1453931543240421e+01  1.2027035039403289e+01  1.2241960478218180e+01  1.2306021068555555e+01  1.2299182369371900e+01  1.2286573161893456e+01  1.3807657677214875e+01  1.3834921727042920e+01  1.3860866952677044e+01  1.3926065865396382e+01  1.4065286654781767e+01  1.4344453357134345e+01  1.4808631532100335e+01  1.5711977347664462e+01  1.6918256733147590e+01  1.7953722757201923e+01  1.9221876768305275e+01  2.0616545536691618e+01  2.1932736874949260e+01  2.2332095729687953e+01  2.2355060507782614e+01  2.2132883353817952e+01  2.1640736307601664e+01  2.0828049283227681e+01  1.9780427980868176e+01  1.8298965846657204e+01  1.6889804189427302e+01  1.5754479488370990e+01  1.4559786495036503e+01  1.3310355406809339e+01  1.1969290360958981e+01  1.0678004970383046e+01  9.3047140037964233e+00  7.9419915359485893e+00  6.6946915332923096e+00  5.7692941745948021e+00  4.9874550600533745e+00  4.6624648450242372e+00  4.4228223786355620e+00  4.5132864583867347e+00  5.5464235902848191e+00  6.2719588506315400e+00  6.8489424535300882e+00  7.8651150018236242e+00  9.0974181417790607e+00  1.0192924357257237e+01  1.1096389121701929e+01  1.1884940887048446e+01  1.2590599004450667e+01  1.3218723008326974e+01  1.3800445204483658e+01  1.4132633428539394e+01  1.4260281308352214e+01  1.4294448669047702e+01  1.4309030339567835e+01  1.6121404254085672e+01  1.6102164105779231e+01  1.6096896571048685e+01  1.6123139809465851e+01  1.6189764792480023e+01  1.6308785083751534e+01  1.6453287142733899e+01  1.6847107832886778e+01  1.7832661693584015e+01  1.8803090952317380e+01  2.0114551953660285e+01  2.1435084934538686e+01  2.2556622688258429e+01  2.3051757461300337e+01  2.2991216489772604e+01  2.2459106416241625e+01  2.1800343876614686e+01  2.0969531901351186e+01  1.9856982212989926e+01  1.8510307437173662e+01  1.7145954564386905e+01  1.5878388866796751e+01  1.4645995333811824e+01  1.3409235256772094e+01  1.2076683396092221e+01  1.0704534232468758e+01  9.2744337763862958e+00  7.7679307466473295e+00  6.4677812531379226e+00  5.7492540202110893e+00  5.0719712855074448e+00  4.8065894058739591e+00  4.6163927986235711e+00  5.0711679050563347e+00  6.0502221621848546e+00  6.9387936892103124e+00  7.6674328406514025e+00  8.7958715010574711e+00  1.0142872711168287e+01  1.1403586654927807e+01  1.2381439174247582e+01  1.3252031279855146e+01  1.4018500453940563e+01  1.4653813674672495e+01  1.5245670548203169e+01  1.5930720498071224e+01  1.6159858009658500e+01  1.6191810613594814e+01  1.6184391565801278e+01  1.7198422317908687e+01  1.7201110473290502e+01  1.7209669227326135e+01  1.7230829923064242e+01  1.7282931627652641e+01  1.7382035285850002e+01  1.7558938670520980e+01  1.8064002474051058e+01  1.8932055059409510e+01  1.9755698735953299e+01  2.0925348473993171e+01  2.2112862151030424e+01  2.2955840077103950e+01  2.3190228525035597e+01  2.3106823474823202e+01  2.2761795898448543e+01  2.2126533687948090e+01  2.1245166991833191e+01  1.9968189544513926e+01  1.8460965841262915e+01  1.7079737322461757e+01  1.5770774905643512e+01  1.4529918978279104e+01  1.3300889508641221e+01  1.2034780777167489e+01  1.0573272338302084e+01  9.0279849105291827e+00  7.4228023108660155e+00  6.2888088925701338e+00  5.7175583235060010e+00  5.1590427790892424e+00  4.9726259046675390e+00  4.8424633532788306e+00  5.5787864185723182e+00  6.4484408535436772e+00  7.6036372647828561e+00  8.5147422321743722e+00  9.8710972363685272e+00  1.1200937562250756e+01  1.2714704431826434e+01  1.3902327714674472e+01  1.4973977123537933e+01  1.5911504008598916e+01  1.6811788561341722e+01  1.7910334010004963e+01  1.9144911941652374e+01  1.9366335293520137e+01  1.9349812072425379e+01  1.9347092522070444e+01  1.8113835695433771e+01  1.8117209334079764e+01  1.8123884787900483e+01  1.8148935737741290e+01  1.8204457553810471e+01  1.8309482062689021e+01  1.8545410642027392e+01  1.9047182390766260e+01  1.9666671108850206e+01  2.0285815559772061e+01  2.1158658069176479e+01  2.2399582143477097e+01  2.3142105937489990e+01  2.3307858722410593e+01  2.3174271552009284e+01  2.2805061848988171e+01  2.2234637408224732e+01  2.1183726659435592e+01  1.9729561821231524e+01  1.8093102665624688e+01  1.6705769865232110e+01  1.5454131127040224e+01  1.4251748359702464e+01  1.2992537991030012e+01  1.1706686548242121e+01  1.0250904489202199e+01  8.6700222688477222e+00  7.0312505332615647e+00  6.1378880756517429e+00  5.6840777833794744e+00  5.2513905688541875e+00  5.1542946660415661e+00  5.0830236805362778e+00  6.0579897039161157e+00  6.9005693028510624e+00  8.2630514200209557e+00  9.3892331636999913e+00  1.0966299558075526e+01  1.2294310975118856e+01  1.4059219255054849e+01  1.6281791841631822e+01  1.8309935144056787e+01  1.9658625911668260e+01  2.0566378401763629e+01  2.1241462347962688e+01  2.1560511059365776e+01  2.1510808086150142e+01  2.1531424644468576e+01  2.1541883450500137e+01  1.9744868839215400e+01  1.9735580178663312e+01  1.9732199178184526e+01  1.9735079482893134e+01  1.9743204021403319e+01  1.9763405925499747e+01  1.9812376739357848e+01  1.9944598760461933e+01  2.0270519101251562e+01  2.0771401916192644e+01  2.1423445779767047e+01  2.2139906969007953e+01  2.2598862007604243e+01  2.2554416793862565e+01  2.2267354230952439e+01  2.1776200619246289e+01  2.1132773598300851e+01  2.0272603988258833e+01  1.9176471103910750e+01  1.7714147448434563e+01  1.6366804490260090e+01  1.5193238908762721e+01  1.4027081746843146e+01  1.2703935991010091e+01  1.1268225287562709e+01  9.7876807047770988e+00  8.2753118109255208e+00  6.6183200255478392e+00  6.0162456079282958e+00  5.6757983673984294e+00  5.3656526769917932e+00  5.3571832263352430e+00  5.3504078839724620e+00  6.5610601445318837e+00  7.4456027618404557e+00  8.8234423443246381e+00  1.0272683748944104e+01  1.2052684852159169e+01  1.3393594864523141e+01  1.5088664586349131e+01  1.8399532531240197e+01  2.0313003100944428e+01  2.1361028841040991e+01  2.2146998708585400e+01  2.2664725183999622e+01  2.3005219589439974e+01  2.3202475673291367e+01  2.3250191743430335e+01  2.3247394135506159e+01  2.0901552481712045e+01  2.0918256724029465e+01  2.0928268072423798e+01  2.0925769284592501e+01  2.0915419839641441e+01  2.0907080267117486e+01  2.0912771818656896e+01  2.0981301269376406e+01  2.1083495782969550e+01  2.1280734759516779e+01  2.1609802532865221e+01  2.1910809536396822e+01  2.2026744426618855e+01  2.1845002779102078e+01  2.1486430800421935e+01  2.0965858422352710e+01  2.0314082308163382e+01  1.9558492981150991e+01  1.8612390805500560e+01  1.7380612518829217e+01  1.6073157100481176e+01  1.4952534911480340e+01  1.3690585169383720e+01  1.2131601082482060e+01  1.0504161395740944e+01  9.1261048007706549e+00  7.7832852014592016e+00  6.3333867337978811e+00  5.9456712771234299e+00  5.6869840782351231e+00  5.4979102596622509e+00  5.5816450732508676e+00  5.6505681598870838e+00  7.0859800843737633e+00  8.0457431049514980e+00  9.5131388485796951e+00  1.1194806182923900e+01  1.3088721671927594e+01  1.4433519110220203e+01  1.6069306885177113e+01  2.0225057982369005e+01  2.1891150191580987e+01  2.2796529901475083e+01  2.3796028953482413e+01  2.4519597480788239e+01  2.5011958416416459e+01  2.5251904948331998e+01  2.5240187440398117e+01  2.5223300179685829e+01  2.2375736388809628e+01  2.2350256561266956e+01  2.2314406839480856e+01  2.2263275579117519e+01  2.2204635081818520e+01  2.2097041913977332e+01  2.1975415733706278e+01  2.1853242071762583e+01  2.1718410225795914e+01  2.1633606778343093e+01  2.1640481791873448e+01  2.1700641107749831e+01  2.1580812234520174e+01  2.1320195601822782e+01  2.0935412948120423e+01  2.0391848000056925e+01  1.9718139071058221e+01  1.8936009503257839e+01  1.7915661016171057e+01  1.6462815240835319e+01  1.4685468402122746e+01  1.3419074923095843e+01  1.2306025741308011e+01  1.1166253684107730e+01  9.7226580085649417e+00  8.4899807558192517e+00  7.3875465547704540e+00  6.1696515447041831e+00  5.8943960553909731e+00  5.7120488895338797e+00  5.6476388531086297e+00  5.8272189183292609e+00  5.9761985275917207e+00  7.6773600326820013e+00  8.7475697209796923e+00  1.0429974912918114e+01  1.2122741508568685e+01  1.3894829432796522e+01  1.5547077199318961e+01  1.7424883767757819e+01  2.1905590470987441e+01  2.3598920869971167e+01  2.4699384327124552e+01  2.6260460742313878e+01  2.7299091732938539e+01  2.7972513558474176e+01  2.8171303705496300e+01  2.8143716738128166e+01  2.8159229659091810e+01  2.4960341122099390e+01  2.4975702430342334e+01  2.4979153960373157e+01  2.4915546849119515e+01  2.4732455948302032e+01  2.4385853080155208e+01  2.3700121625922744e+01  2.2868735207939348e+01  2.2477813574218978e+01  2.2023325950654264e+01  2.1620619326740705e+01  2.1347707298898790e+01  2.1094983078024935e+01  2.0776176552018121e+01  2.0337834933132022e+01  1.9759196004069359e+01  1.9074341393187996e+01  1.8180966935967653e+01  1.6889268386165877e+01  1.5305415957415130e+01  1.3763699251181977e+01  1.2614263358570097e+01  1.1519383996497963e+01  1.0411655397626022e+01  9.0765345611128723e+00  7.9640271149567079e+00  7.0844586699660095e+00  6.0308222299319310e+00  5.8594847459101187e+00  5.7563310353588477e+00  5.8176738536223267e+00  6.0944571826197462e+00  6.3261208811882153e+00  8.3200772515804218e+00  9.5057712832808896e+00  1.1244036016518601e+01  1.3026636435888568e+01  1.4485363165097565e+01  1.7125441903313984e+01  1.9506856349293564e+01  2.3487868306211841e+01  2.5515266793749102e+01  2.6781737417861883e+01  2.8689597826580194e+01  3.0160176383700620e+01  3.1179944707945758e+01  3.1548709003449478e+01  3.1560257917995518e+01  3.1544346725768182e+01  2.6112417168778162e+01  2.6112413863713275e+01  2.6084184637566718e+01  2.6016951233168196e+01  2.5876435394709951e+01  2.5574599575762424e+01  2.4855109297146846e+01  2.3899008780526945e+01  2.2953665071120600e+01  2.2256549942453095e+01  2.1548395471509444e+01  2.0841741344188296e+01  1.9801353885538092e+01  1.8986263510854066e+01  1.8220658454146459e+01  1.7433380894807446e+01  1.6577376004489597e+01  1.5653093174150751e+01  1.4694841694290863e+01  1.3823251272782235e+01  1.2930112481398000e+01  1.1926903051081926e+01  1.0837078135628845e+01  9.7258263987495432e+00  8.4788900596826871e+00  7.4771961795199200e+00  6.7504060096081311e+00  5.9056826384781917e+00  5.8460985333808635e+00  5.8208597472045813e+00  6.0117441229645250e+00  6.3846579313536962e+00  6.7062629856689453e+00  8.9692182815838173e+00  1.0242075128921318e+01  1.1988297086509061e+01  1.4021165549188956e+01  1.5474443510178666e+01  1.9454881799676141e+01  2.2359920940131939e+01  2.5136804825112911e+01  2.7718555799339004e+01  2.9210615621339045e+01  3.1145426940602743e+01  3.3002473759423644e+01  3.382363530