<?xml version="1.0"?>
<VTKFile type="UnstructuredGrid"  version="0.1"  >
<UnstructuredGrid>
<Piece  NumberOfPoints="2401" NumberOfCells="4608">
<Points>
<DataArray  type="Float64"  NumberOfComponents="3"  format="ascii">0 0 0  0.001070538380698371 0 0  0.004277569313095364 0 0  0.009607359798386061 0 0  0.01703708685546806 0 0  0.02653493525245065 0 0  0.03806023374436157 0 0  0.05156362923366253 0 0  0.06698729810778931 0 0  0.08426519384873815 0 0  0.1033233298543955 0 0  0.1240800962605269 0 0  0.1464466094067445 0 0  0.1703270924499866 0 0  0.1956192854956637 0 0  0.2222148834902257 0 0  0.2500000000000299 0 0  0.2788556548905322 0 0  0.308658283817491 0 0  0.339280267348458 0 0  0.3705904774487813 0 0  0.4024548389919803 0 0  0.4347369038900211 0 0  0.467298435384978 0 0  0.5000000000000517 0 0  0.5327015646151253 0 0  0.5652630961100813 0 0  0.5975451610081212 0 0  0.6294095225513188 0 0  0.6607197326516399 0 0  0.6913417161826045 0 0  0.7211443451095605 0 0  0.7500000000000597 0 0  0.7777851165098603 0 0  0.8043807145044185 0 0  0.829672907550091 0 0  0.8535533905933287 0 0  0.8759199037395413 0 0  0.8966766701456674 0 0  0.9157348061513193 0 0  0.9330127018922625 0 0  0.9484363707663832 0 0  0.961939766255678 0 0  0.9734650647475827 0 0  0.9829629131445586 0 0  0.9903926402016341 0 0  0.9957224306869181 0 0  0.9989294616193084 0 0  1 0 0  0 0.02083333333333333 0  0.001070538380698371 0.02083333333333333 0  0.004277569313095364 0.02083333333333333 0  0.009607359798386061 0.02083333333333333 0  0.01703708685546806 0.02083333333333333 0  0.02653493525245065 0.02083333333333333 0  0.03806023374436157 0.02083333333333333 0  0.05156362923366253 0.02083333333333333 0  0.06698729810778931 0.02083333333333333 0  0.08426519384873815 0.02083333333333333 0  0.1033233298543955 0.02083333333333333 0  0.1240800962605269 0.02083333333333333 0  0.1464466094067445 0.02083333333333333 0  0.1703270924499866 0.02083333333333333 0  0.1956192854956637 0.02083333333333333 0  0.2222148834902257 0.02083333333333333 0  0.2500000000000299 0.02083333333333333 0  0.2788556548905322 0.02083333333333333 0  0.308658283817491 0.02083333333333333 0  0.339280267348458 0.02083333333333333 0  0.3705904774487813 0.02083333333333333 0  0.4024548389919803 0.02083333333333333 0  0.4347369038900211 0.02083333333333333 0  0.467298435384978 0.02083333333333333 0  0.5000000000000517 0.02083333333333333 0  0.5327015646151253 0.02083333333333333 0  0.5652630961100813 0.02083333333333333 0  0.5975451610081212 0.02083333333333333 0  0.6294095225513188 0.02083333333333333 0  0.6607197326516399 0.02083333333333333 0  0.6913417161826045 0.02083333333333333 0  0.7211443451095605 0.02083333333333333 0  0.7500000000000597 0.02083333333333333 0  0.7777851165098603 0.02083333333333333 0  0.8043807145044185 0.02083333333333333 0  0.829672907550091 0.02083333333333333 0  0.8535533905933287 0.02083333333333333 0  0.8759199037395413 0.02083333333333333 0  0.8966766701456674 0.02083333333333333 0  0.9157348061513193 0.02083333333333333 0  0.9330127018922625 0.02083333333333333 0  0.9484363707663832 0.02083333333333333 0  0.961939766255678 0.02083333333333333 0  0.9734650647475827 0.02083333333333333 0  0.9829629131445586 0.02083333333333333 0  0.9903926402016341 0.02083333333333333 0  0.9957224306869181 0.02083333333333333 0  0.9989294616193084 0.02083333333333333 0  1 0.02083333333333333 0  0 0.04166666666666666 0  0.001070538380698371 0.04166666666666666 0  0.004277569313095364 0.04166666666666666 0  0.009607359798386061 0.04166666666666666 0  0.01703708685546806 0.04166666666666666 0  0.02653493525245065 0.04166666666666666 0  0.03806023374436157 0.04166666666666666 0  0.05156362923366253 0.04166666666666666 0  0.06698729810778931 0.04166666666666666 0  0.08426519384873815 0.04166666666666666 0  0.1033233298543955 0.04166666666666666 0  0.1240800962605269 0.04166666666666666 0  0.1464466094067445 0.04166666666666666 0  0.1703270924499866 0.04166666666666666 0  0.1956192854956637 0.04166666666666666 0  0.2222148834902257 0.04166666666666666 0  0.2500000000000299 0.04166666666666666 0  0.2788556548905322 0.04166666666666666 0  0.308658283817491 0.04166666666666666 0  0.339280267348458 0.04166666666666666 0  0.3705904774487813 0.04166666666666666 0  0.4024548389919803 0.04166666666666666 0  0.4347369038900211 0.04166666666666666 0  0.467298435384978 0.04166666666666666 0  0.5000000000000517 0.04166666666666666 0  0.5327015646151253 0.04166666666666666 0  0.5652630961100813 0.04166666666666666 0  0.5975451610081212 0.04166666666666666 0  0.6294095225513188 0.04166666666666666 0  0.6607197326516399 0.04166666666666666 0  0.6913417161826045 0.04166666666666666 0  0.7211443451095605 0.04166666666666666 0  0.7500000000000597 0.04166666666666666 0  0.7777851165098603 0.04166666666666666 0  0.8043807145044185 0.04166666666666666 0  0.829672907550091 0.04166666666666666 0  0.8535533905933287 0.04166666666666666 0  0.8759199037395413 0.04166666666666666 0  0.8966766701456674 0.04166666666666666 0  0.9157348061513193 0.04166666666666666 0  0.9330127018922625 0.04166666666666666 0  0.9484363707663832 0.04166666666666666 0  0.961939766255678 0.04166666666666666 0  0.9734650647475827 0.04166666666666666 0  0.9829629131445586 0.04166666666666666 0  0.9903926402016341 0.04166666666666666 0  0.9957224306869181 0.04166666666666666 0  0.9989294616193084 0.04166666666666666 0  1 0.04166666666666666 0  0 0.0625 0  0.001070538380698371 0.0625 0  0.004277569313095364 0.0625 0  0.009607359798386061 0.0625 0  0.01703708685546806 0.0625 0  0.02653493525245065 0.0625 0  0.03806023374436157 0.0625 0  0.05156362923366253 0.0625 0  0.06698729810778931 0.0625 0  0.08426519384873815 0.0625 0  0.1033233298543955 0.0625 0  0.1240800962605269 0.0625 0  0.1464466094067445 0.0625 0  0.1703270924499866 0.0625 0  0.1956192854956637 0.0625 0  0.2222148834902257 0.0625 0  0.2500000000000299 0.0625 0  0.2788556548905322 0.0625 0  0.308658283817491 0.0625 0  0.339280267348458 0.0625 0  0.3705904774487813 0.0625 0  0.4024548389919803 0.0625 0  0.4347369038900211 0.0625 0  0.467298435384978 0.0625 0  0.5000000000000517 0.0625 0  0.5327015646151253 0.0625 0  0.5652630961100813 0.0625 0  0.5975451610081212 0.0625 0  0.6294095225513188 0.0625 0  0.6607197326516399 0.0625 0  0.6913417161826045 0.0625 0  0.7211443451095605 0.0625 0  0.7500000000000597 0.0625 0  0.7777851165098603 0.0625 0  0.8043807145044185 0.0625 0  0.829672907550091 0.0625 0  0.8535533905933287 0.0625 0  0.8759199037395413 0.0625 0  0.8966766701456674 0.0625 0  0.9157348061513193 0.0625 0  0.9330127018922625 0.0625 0  0.9484363707663832 0.0625 0  0.961939766255678 0.0625 0  0.9734650647475827 0.0625 0  0.9829629131445586 0.0625 0  0.9903926402016341 0.0625 0  0.9957224306869181 0.0625 0  0.9989294616193084 0.0625 0  1 0.0625 0  0 0.08333333333333333 0  0.001070538380698371 0.08333333333333333 0  0.004277569313095364 0.08333333333333333 0  0.009607359798386061 0.08333333333333333 0  0.01703708685546806 0.08333333333333333 0  0.02653493525245065 0.08333333333333333 0  0.03806023374436157 0.08333333333333333 0  0.05156362923366253 0.08333333333333333 0  0.06698729810778931 0.08333333333333333 0  0.08426519384873815 0.08333333333333333 0  0.1033233298543955 0.08333333333333333 0  0.1240800962605269 0.08333333333333333 0  0.1464466094067445 0.08333333333333333 0  0.1703270924499866 0.08333333333333333 0  0.1956192854956637 0.08333333333333333 0  0.2222148834902257 0.08333333333333333 0  0.2500000000000299 0.08333333333333333 0  0.2788556548905322 0.08333333333333333 0  0.308658283817491 0.08333333333333333 0  0.339280267348458 0.08333333333333333 0  0.3705904774487813 0.08333333333333333 0  0.4024548389919803 0.08333333333333333 0  0.4347369038900211 0.08333333333333333 0  0.467298435384978 0.08333333333333333 0  0.5000000000000517 0.08333333333333333 0  0.5327015646151253 0.08333333333333333 0  0.5652630961100813 0.08333333333333333 0  0.5975451610081212 0.08333333333333333 0  0.6294095225513188 0.08333333333333333 0  0.6607197326516399 0.08333333333333333 0  0.6913417161826045 0.08333333333333333 0  0.7211443451095605 0.08333333333333333 0  0.7500000000000597 0.08333333333333333 0  0.7777851165098603 0.08333333333333333 0  0.8043807145044185 0.08333333333333333 0  0.829672907550091 0.08333333333333333 0  0.8535533905933287 0.08333333333333333 0  0.8759199037395413 0.08333333333333333 0  0.8966766701456674 0.08333333333333333 0  0.9157348061513193 0.08333333333333333 0  0.9330127018922625 0.08333333333333333 0  0.9484363707663832 0.08333333333333333 0  0.961939766255678 0.08333333333333333 0  0.9734650647475827 0.08333333333333333 0  0.9829629131445586 0.08333333333333333 0  0.9903926402016341 0.08333333333333333 0  0.9957224306869181 0.08333333333333333 0  0.9989294616193084 0.08333333333333333 0  1 0.08333333333333333 0  0 0.1041666666666667 0  0.001070538380698371 0.1041666666666667 0  0.004277569313095364 0.1041666666666667 0  0.009607359798386061 0.1041666666666667 0  0.01703708685546806 0.1041666666666667 0  0.02653493525245065 0.1041666666666667 0  0.03806023374436157 0.1041666666666667 0  0.05156362923366253 0.1041666666666667 0  0.06698729810778931 0.1041666666666667 0  0.08426519384873815 0.1041666666666667 0  0.1033233298543955 0.1041666666666667 0  0.1240800962605269 0.1041666666666667 0  0.1464466094067445 0.1041666666666667 0  0.1703270924499866 0.1041666666666667 0  0.1956192854956637 0.1041666666666667 0  0.2222148834902257 0.1041666666666667 0  0.2500000000000299 0.1041666666666667 0  0.2788556548905322 0.1041666666666667 0  0.308658283817491 0.1041666666666667 0  0.339280267348458 0.1041666666666667 0  0.3705904774487813 0.1041666666666667 0  0.4024548389919803 0.1041666666666667 0  0.4347369038900211 0.1041666666666667 0  0.467298435384978 0.1041666666666667 0  0.5000000000000517 0.1041666666666667 0  0.5327015646151253 0.1041666666666667 0  0.5652630961100813 0.1041666666666667 0  0.5975451610081212 0.1041666666666667 0  0.62
[...]
<PointData  Scalars="f_415736"> 
<DataArray  type="Float64"  Name="f_415736"  format="ascii">4.0518944505265866e+00  4.0557920589852143e+00  4.0535154093031478e+00  4.1694516613662875e+00  4.4782774458322905e+00  4.9594083896267867e+00  5.2703083752298738e+00  5.5808334612084938e+00  6.2930777359567402e+00  6.9339084150147539e+00  8.0831635906080663e+00  1.0574500386231716e+01  1.1966610424817590e+01  1.3477079581243757e+01  1.5887023648711509e+01  1.7593665103346517e+01  2.0463536031882008e+01  2.3758143298056627e+01  2.5618719718918967e+01  2.7016003812546000e+01  2.8416664444678730e+01  2.9355674832456977e+01  2.9838384466888922e+01  3.0039694399664928e+01  3.0142962319944761e+01  3.0060855293324302e+01  2.9618387911141934e+01  2.8335068088722686e+01  2.6827781050973989e+01  2.5155131701078428e+01  2.3244965668004266e+01  2.1745413295002230e+01  1.9763080336165192e+01  1.7859205532391741e+01  1.6703372372121947e+01  1.5585594508698840e+01  1.4062269459085098e+01  1.3243961104611405e+01  1.2221271104432740e+01  1.0952662275056349e+01  1.0433199483695224e+01  9.9211660094703547e+00  9.2990284419008198e+00  8.8726641277361260e+00  8.5859606693966253e+00  8.4388611413118912e+00  8.4969740574877264e+00  8.5314443367904254e+00  8.5468527161584156e+00  3.9574178901138479e+00  3.9607185976474018e+00  3.9713150958834023e+00  4.1093958443116421e+00  4.2987799052983000e+00  4.8004622008067139e+00  5.1325010446455783e+00  5.4738471447243215e+00  6.1574879529685251e+00  6.7611830214571338e+00  7.7170220580862150e+00  1.0203855004889611e+01  1.1810995883993307e+01  1.3256195511101724e+01  1.5449234123628754e+01  1.7281811415377241e+01  1.9859409837422238e+01  2.3080535423688758e+01  2.5111520467096931e+01  2.6191222731642018e+01  2.7553597479817654e+01  2.8411367361200277e+01  2.9284905352166998e+01  2.9339113283185558e+01  2.9639257652034548e+01  2.9686455196570666e+01  2.9235422848478446e+01  2.7861886509318246e+01  2.6268933168261459e+01  2.4865576409930437e+01  2.2976170728695546e+01  2.1683557809849137e+01  2.0117335288908297e+01  1.8008778463125065e+01  1.6902593177110855e+01  1.5852971700070981e+01  1.4399786735083575e+01  1.3463177934800255e+01  1.2621131302939892e+01  1.1664037013897302e+01  1.1123261036054421e+01  1.0571538592675372e+01  9.9377886987154778e+00  9.4407265422378206e+00  9.2300683777573376e+00  9.1523057956024925e+00  9.1661376302844673e+00  9.1794402424598882e+00  9.1709898872671474e+00  3.7235027473012123e+00  3.7213567560329492e+00  3.7300214429403833e+00  3.8263721162729487e+00  4.0183004596209377e+00  4.5195494894810606e+00  4.8758871442377574e+00  5.1635690102892511e+00  5.8221947525921243e+00  6.3833822096119937e+00  7.1710945833004480e+00  9.2407854451098554e+00  1.0917839643328941e+01  1.2715952147874573e+01  1.4345741759376113e+01  1.6151027061382894e+01  1.8212887846705922e+01  2.0711585182571195e+01  2.1977699420276966e+01  2.2911185156491108e+01  2.4475390409610107e+01  2.5687662023153194e+01  2.6061898394207422e+01  2.6561435664771050e+01  2.6638280134002557e+01  2.6632166118388991e+01  2.6370631817985171e+01  2.5973723446164946e+01  2.5252083004944321e+01  2.4218463770679641e+01  2.2613403694822686e+01  2.1641704176557866e+01  2.0566357885605107e+01  1.8370354273164523e+01  1.7427082146493127e+01  1.6469265939569748e+01  1.5285709045717613e+01  1.4301064164366684e+01  1.3333381012821981e+01  1.2670887076118060e+01  1.2148966764308241e+01  1.1660181537087505e+01  1.1197618228645428e+01  1.0707321339425885e+01  1.0324737106832258e+01  1.0112608130296657e+01  1.0064939437147505e+01  1.0068670546295339e+01  1.0074742534388719e+01  3.3782528046133029e+00  3.3798139195037642e+00  3.3897448681170559e+00  3.4450251450427229e+00  3.5573063071125666e+00  3.8497202463187539e+00  4.4785948006520959e+00  4.8168221470331867e+00  5.3461619373914981e+00  5.8863428610559456e+00  6.5393483401090329e+00  8.2876565962403852e+00  9.9555760355087717e+00  1.1114862813965846e+01  1.3124602405665422e+01  1.4859466730307201e+01  1.6469153504782646e+01  1.8460355716390630e+01  1.9832730928411799e+01  2.0704654877629007e+01  2.1504989682771328e+01  2.2658406355780713e+01  2.3832443716345040e+01  2.4537311490870227e+01  2.5002798593414383e+01  2.4913871893553928e+01  2.4693831825733159e+01  2.4535472072154594e+01  2.4281825893433982e+01  2.3579726688315336e+01  2.2392396557937456e+01  2.1670853099478244e+01  2.0848799233958641e+01  1.8909558937904951e+01  1.8058362401384418e+01  1.7174020891609434e+01  1.6127284064315145e+01  1.5293475254036467e+01  1.4138764816695460e+01  1.3433033203067259e+01  1.2890023533176192e+01  1.2415994676128108e+01  1.1984607670828265e+01  1.1589206559903227e+01  1.1313166006093606e+01  1.1180367260941521e+01  1.1144096439810337e+01  1.1146285264109682e+01  1.1140378657938319e+01  3.0987717682110807e+00  3.0975188307366310e+00  3.0986157020517098e+00  3.1138421775627898e+00  3.1607476767728686e+00  3.2999629306990990e+00  3.6941092939350519e+00  4.2551804278202514e+00  4.6628919406888683e+00  5.2459644356717652e+00  5.8105202847362998e+00  7.0099657462626661e+00  8.9472191033364901e+00  1.0060003890865319e+01  1.0891169620864961e+01  1.2953023247439480e+01  1.4818210698971992e+01  1.6527759011296229e+01  1.7642082215463560e+01  1.8543394299187597e+01  1.9317641456735537e+01  2.0332629509916462e+01  2.1496720387222808e+01  2.2961030674337930e+01  2.3700073172239211e+01  2.3688511522569698e+01  2.3492827979977530e+01  2.3434480584457084e+01  2.3324246597338508e+01  2.2940784992783808e+01  2.2201628151511454e+01  2.1711644385846022e+01  2.1125712144645490e+01  1.9642151975451714e+01  1.8803892657092849e+01  1.7995416860956418e+01  1.6974926896884689e+01  1.6242327987979849e+01  1.5234897570716296e+01  1.4545155138261217e+01  1.3989774955242739e+01  1.3476326939661174e+01  1.3001758747432907e+01  1.2600503373503216e+01  1.2293771537535207e+01  1.2180948051631473e+01  1.2169773148278114e+01  1.2176627691146390e+01  1.2178420393140104e+01  2.8945067872689005e+00  2.8948161951872664e+00  2.8987864451944030e+00  2.9112881058228752e+00  2.9413500096074605e+00  3.0197852004495616e+00  3.1544013633169401e+00  3.6828110881890552e+00  3.9907529578665755e+00  4.4049220906742255e+00  5.0744799418089634e+00  6.0228535230243914e+00  7.2583685805799352e+00  8.8492451293435597e+00  9.5553700165490660e+00  1.0547408137101161e+01  1.1885672698022404e+01  1.4733947329538491e+01  1.6289526304306619e+01  1.7383336050162832e+01  1.8187991904383029e+01  1.9028441716870670e+01  2.0041897772979500e+01  2.0910059882243587e+01  2.1725215417629272e+01  2.1838918011945363e+01  2.1866591434795176e+01  2.2025324545227161e+01  2.2135750591877557e+01  2.2130738589029065e+01  2.2005676835850242e+01  2.1796387257576988e+01  2.1487339708057974e+01  2.0706576588577530e+01  1.9797923212145935e+01  1.9075340397546388e+01  1.8112177446283269e+01  1.7245339606089754e+01  1.6262559149684343e+01  1.5447386759107321e+01  1.4867759336278176e+01  1.4310155366435062e+01  1.3757529178566426e+01  1.3327791196637190e+01  1.3030091619443862e+01  1.2889506322362186e+01  1.2870149566605559e+01  1.2869827608334122e+01  1.2867829141269070e+01  2.6925787168920507e+00  2.6930098992160842e+00  2.6950241729084379e+00  2.7062448485622621e+00  2.7371919162812466e+00  2.8128441848269712e+00  2.9579478083282789e+00  3.2827047868447479e+00  3.5784149462833144e+00  3.8528509711174110e+00  4.3859260273083578e+00  5.1608330644928122e+00  6.4443044955608935e+00  7.2358571095252842e+00  8.4231795142668133e+00  9.0843380678875256e+00  1.0171313472090999e+01  1.1809181747341848e+01  1.4616206221131693e+01  1.5891132244581318e+01  1.6789672107963995e+01  1.7675783431705938e+01  1.8285950123172263e+01  1.8730789265530920e+01  1.9179012679421710e+01  2.0305500893133573e+01  2.0859754483519186e+01  2.1074118564688423e+01  2.1394696153207814e+01  2.1620972563167992e+01  2.1817466018356843e+01  2.1927185999089726e+01  2.1955099701828328e+01  2.1843841547716405e+01  2.1005578842450713e+01  2.0386208439582305e+01  1.9264550575109428e+01  1.8166367152983359e+01  1.7196856283975382e+01  1.6428496076819453e+01  1.5873498708739495e+01  1.5374215398981958e+01  1.4799266952397051e+01  1.4036176766895252e+01  1.3644126774249600e+01  1.3491216159434346e+01  1.3446905838491650e+01  1.3444721609313069e+01  1.3446986934569530e+01  2.5921056316002482e+00  2.5902279122141687e+00  2.5913620789166640e+00  2.5997848487595374e+00  2.6208997262082057e+00  2.6692729754787350e+00  2.7682232735569716e+00  2.9699914233362525e+00  3.2840739767461291e+00  3.4727371243889720e+00  3.8334285265525949e+00  4.3185020719840104e+00  5.5112441229972307e+00  6.3516358077372459e+00  7.1520337458030330e+00  8.0883395989012410e+00  8.9114678738607207e+00  9.8216959747846353e+00  1.1419937307756198e+01  1.2280792236762418e+01  1.2763389814525931e+01  1.3334815245063259e+01  1.4248390814642008e+01  1.4798708847470371e+01  1.5958811828489692e+01  1.7645410314237175e+01  1.9150801100035970e+01  1.9761409349367931e+01  2.0276564104802276e+01  2.0993482583586985e+01  2.1580613288194623e+01  2.1947189349297478e+01  2.2340093259976143e+01  2.2551757097093436e+01  2.1813971691022488e+01  2.1202486665340263e+01  2.0362169427874967e+01  1.8824799178361360e+01  1.7757124246186283e+01  1.6952015829806037e+01  1.6368960312872790e+01  1.5917562285768197e+01  1.5482442241238296e+01  1.4911002153638469e+01  1.4319683272431982e+01  1.4094180334124848e+01  1.4033895977426429e+01  1.4019092991273943e+01  1.4014607049245164e+01  2.4737425347084350e+00  2.4768847601020196e+00  2.4789711334717239e+00  2.4847907934026545e+00  2.4996026032347087e+00  2.5354999460490530e+00  2.6036194991632371e+00  2.7956058425558563e+00  3.0203912258792780e+00  3.2300938740303509e+00  3.4716281221263463e+00  3.8651516411619111e+00  4.5426031332676624e+00  5.5130365668863206e+00  6.3093775317321770e+00  6.9580838587165825e+00  7.6485713959396726e+00  8.5035185125802251e+00  9.3707257428258313e+00  1.0629672770827554e+01  1.1674526163034509e+01  1.2383057117942098e+01  1.3138531892957012e+01  1.3955708199363809e+01  1.5007031943326821e+01  1.6122645941848152e+01  1.7336910971930923e+01  1.8535247157596690e+01  1.9401192223443100e+01  2.0176395784414193e+01  2.1233527265485638e+01  2.1807102746163835e+01  2.2455969182365195e+01  2.2885760119854957e+01  2.2181081721834559e+01  2.1640677178816585e+01  2.1158517256051745e+01  1.9863822622428263e+01  1.8425117437413132e+01  1.7515220652960572e+01  1.6875658209303118e+01  1.6365185969209314e+01  1.5930014982784655e+01  1.5484947926493026e+01  1.4966998574503844e+01  1.4694264720833086e+01  1.4597989989088772e+01  1.4590573345164737e+01  1.4593957124228636e+01  2.4805558797817433e+00  2.4777924157248994e+00  2.4751695231579123e+00  2.4736905216543574e+00  2.4754890305474726e+00  2.4867249438940995e+00  2.5153280969708596e+00  2.6222418292515628e+00  2.7940855361421759e+00  2.9422645132566143e+00  3.2117754171085338e+00  3.5299361929922171e+00  4.0498002549672512e+00  4.5535289992915127e+00  5.3811902777120197e+00  6.2777024490017634e+00  7.0000411564520615e+00  7.7628170756532375e+00  8.5999686500490782e+00  9.4291804721214074e+00  1.0308292719410396e+01  1.1160586484742167e+01  1.1909841198897968e+01  1.2766635903684676e+01  1.3934475652436580e+01  1.5149214182580497e+01  1.6324292654595595e+01  1.7514901659169400e+01  1.8618352402909949e+01  1.9482994101740605e+01  2.0762182640263894e+01  2.1522527420368679e+01  2.2342739084166588e+01  2.2920480455337394e+01  2.2386780161289852e+01  2.1879188489505658e+01  2.1475030446077437e+01  2.0634973658289677e+01  1.9204817589243842e+01  1.7964662406201370e+01  1.7182991832989831e+01  1.6616730356409004e+01  1.6173809048655897e+01  1.5819777559455320e+01  1.5434292844663574e+01  1.4994660379695917e+01  1.4918985066733670e+01  1.4910784438941622e+01  1.4909842607487249e+01  2.5485638185381068e+00  2.5489472896997243e+00  2.5497038042915765e+00  2.5511223091894490e+00  2.5554296965908812e+00  2.5653623100606793e+00  2.5878195618867750e+00  2.6513738197048808e+00  2.7424595895601294e+00  2.8275988152194236e+00  2.9945296862143955e+00  3.2828896253761477e+00  3.7674563454261514e+00  4.2675103523213505e+00  4.7950094403704879e+00  5.4337092478066067e+00  6.3125719840224770e+00  7.0238770299748570e+00  7.7231417437828371e+00  8.3824899380917124e+00  8.9464633734224801e+00  9.5594674640545847e+00  1.0272438297678249e+01  1.1084039096710498e+01  1.2041538105815802e+01  1.3511487070981481e+01  1.5002665634388762e+01  1.6607897476619936e+01  1.7962820551861100e+01  1.8908563312439458e+01  2.0261215172375323e+01  2.1125070749302104e+01  2.2087877218008362e+01  2.2779682182268768e+01  2.2446975471206795e+01  2.1976276409639183e+01  2.1577722595244811e+01  2.0895248875404970e+01  2.0025319855777138e+01  1.8697064737754321e+01  1.7677084075705078e+01  1.6875574987503125e+01  1.6347334438935420e+01  1.5947207109421182e+01  1.5611744640595008e+01  1.5313205820010630e+01  1.5263466448085786e+01  1.5262455703603459e+01  1.5261104868688751e+01  2.6287741608426467e+00  2.6292129549262122e+00  2.6296555736865463e+00  2.6316313607948700e+00  2.6374872360221504e+00  2.6517207171175512e+00  2.6874523236887073e+00  2.7632244212242605e+00  2.8453568886349272e+00  2.9208930151783044e+00  3.0442096319990437e+00  3.2131526727165292e+00  3.5927732106966928e+00  4.0245657536779174e+00  4.4262098202696798e+00  4.8432314008657826e+00  5.1888906140022701e+00  5.7331816849561967e+00  6.4635221881741645e+00  7.2016225924848847e+00  7.7944706722921469e+00  8.4277247776572004e+00  9.1358367480045359e+00  9.9118106746619521e+00  1.0749598180421668e+01  1.2046662676223304e+01  1.3814884805629958e+01  1.5814551688134591e+01  1.7200427562461911e+01  1.8254752263968989e+01  1.9714985648105056e+01  2.0653000522146289e+01  2.1717882901384066e+01  2.2591439619870737e+01  2.2364115011324781e+01  2.1988902397056432e+01  2.1546184508439001e+01  2.0908103450132781e+01  2.0291465765885260e+01  1.9274432629090249e+01  1.8167582828419523e+01  1.7256763608209841e+01  1.6633810711038468e+01  1.6209406076345193e+01  1.5822822603593973e+01  1.5517898999823810e+01  1.5499184561295767e+01  1.5495975945932715e+01  1.5495789562276386e+01  2.8352635683545961e+00  2.8342057175505388e+00  2.8344115393671947e+00  2.8369352163599384e+00  2.8443773550163205e+00  2.8595593290398860e+00  2.8892123211345480e+00  2.9409766764542598e+00  3.0090252116250791e+00  3.1050100705825709e+00  3.2517624566605994e+00  3.4456977773357829e+00  3.7214097481336070e+00  4.0064636114480185e+00  4.2749131885751188e+00  4.5473639601636693e+00  4.8565097435003066e+00  5.3185235449889712e+00  5.8740500348650455e+00  6.6435683099074856e+00  7.2717970220146739e+00  7.8603754466724851e+00  8.4883922522157302e+00  9.2394406818359620e+00  1.0026569135449636e+01  1.1129316325909318e+01  1.2657915754500099e+01  1.5163790539565458e+01  1.6443016565343029e+01  1.7549448211421065e+01  1.9101466913726853e+01  2.0100846478899964e+01  2.1243298013747953e+01  2.2321845065097683e+01  2.2130533814341160e+01  2.1925936230860046e+01  2.1438446278850286e+01  2.0804674537647362e+01  2.0279929449726382e+01  1.9567204173529600e+01  1.8109585225459938e+01  1.7274898275080865e+01  1.6768023192887487e+01  1.6367953897147956e+01  1.6083878670059843e+01  1.5845759137784372e+01  1.5656490346898558e+01  1.5642127859909138e+01  1.5642280551272165e+01  3.0242732505530814e+00  3.0255846076608743e+00  3.0276022834680143e+00  3.0304805469796432e+00  3.0409918000956235e+00  3.0651702777513496e+00  3.1270926563867825e+00  3.2431836479645062e+00  3.3629581548671719e+00  3.4775848309768103e+00  3.5593641461980878e+00  3.7217965235411827e+00  3.9726989072047667e+00  4.1906812994896461e+00  4.3946756486311678e+00  4.5999473839071232e+00  4.8224555522580070e+00  5.0987469733261364e+00  5.4875941896617153e+00  6.0153201078943690e+00  6.6443474153607616e+00  7.1988052265075320e+00  7.7778287250123848e+00  8.4369049076847649e+00  9.3173412324380518e+00  1.0335780987545755e+01  1.1821075113773936e+01  1.4559452468289935e+01  1.5779033912478596e+01  1.6871032501491179e+01  1.8459702160889801e+01  1.9488407124544324e+01  2.0679105981512134e+01  2.1938744532253036e+01  2.1792037760065366e+01  2.1705407695263933e+01  2.1258463653004934e+01  2.0637465132666545e+01  2.0164027134973011e+01  1.9620366583754155e+01  1.8004170334472011e+01  1.7290792847620260e+01  1.6867558640540903e+01  1.6386096650992432e+01  1.6060682960043646e+01  1.5842323929492720e+01  1.5698625266151865e+01  1.5682021189929456e+01  1.5683619711807488e+01  3.2470744317375337e+00  3.2450269848799813e+00  3.2399472876762805e+00  3.2430913950305089e+00  3.2648750601207195e+00  3.3055867705390125e+00  3.4172283633588934e+00  3.5906941087512769e+00  3.7400346217621014e+00  3.8756172115817464e+00  4.0324643491440364e+00  4.0910514566357676e+00  4.2498979800079795e+00  4.3936533063180736e+00  4.5302750331252533e+00  4.6777199246855758e+00  4.8397740936621014e+00  5.0275870031332062e+00  5.2890453351013571e+00  5.5981116636048434e+00  5.8890605041093984e+00  6.1168398330333460e+00  6.5578965556780604e+00  7.4712419973559063e+00  8.7239239513471691e+00  9.7587924240358337e+00  1.1069383782096175e+01  1.3937199060818244e+01  1.5142867671034603e+01  1.6217602336631401e+01  1.7810641795578224e+01  1.8841317833473649e+01  2.0052727121439528e+01  2.1427831501423388e+01  2.1318530351127844e+01  2.1301058710342492e+01  2.0937519514444919e+01  2.0480753632177347e+01  1.9974336136718968e+01  1.9451416231418868e+01  1.7906575917715614e+01  1.7249903978812899e+01  1.6877092085634160e+01  1.6332587376190677e+01  1.5961578136140618e+01  1.5691333266003701e+01  1.5596843499345821e+01  1.5592940925099397e+01  1.5592068170127620e+01  3.8254542776233178e+00  3.8232059420100550e+00  3.8280158586747524e+00  3.8427339394975588e+00  3.8602568858314155e+00  3.8897823651663961e+00  3.9961597556316302e+00  4.1623555938445280e+00  4.3339163241487970e+00  4.5385759521902838e+00  4.7387388883353525e+00  4.9137189340461722e+00  4.7266371129926723e+00  4.7181228891898641e+00  4.7731941979468884e+00  4.8400366020662124e+00  4.9190384937859699e+00  5.0344754993887699e+00  5.2121136398535350e+00  5.4549328253195695e+00  5.7071106473316542e+00  5.9398490076950834e+00  6.3003550147528928e+00  6.9072698221702478e+00  8.1195249616955056e+00  9.3532339266892883e+00  1.0480054560572013e+01  1.3338495575703373e+01  1.4503159712247808e+01  1.5569987574264083e+01  1.7150880114401797e+01  1.8170271011599080e+01  1.9377958487457033e+01  2.0837084098065787e+01  2.0739091179445651e+01  2.0820010364658469e+01  2.0536822204757758e+01  2.0309621487110995e+01  1.9697058853935285e+01  1.9058379621946720e+01  1.7804785067015029e+01  1.7102772139476450e+01  1.6741841015498984e+01  1.6178757767522036e+01  1.5761814882548279e+01  1.5491442822549461e+01  1.5398465364519602e+01  1.5394874565025216e+01  1.5395253156488568e+01  4.1939362849682871e+00  4.1966725568611576e+00  4.2029196332182508e+00  4.2125373828449710e+00  4.2341545174685145e+00  4.3101122974307904e+00  4.4721105999246236e+00  4.6848491796285288e+00  4.8972278471986739e+00  5.1481782151403985e+00  5.3422103540370554e+00  5.5773273731855113e+00  5.7409033440793920e+00  5.7601941035140953e+00  5.7352947644186401e+00  5.6670795107507850e+00  5.5931605643896152e+00  5.5228557232958861e+00  5.4744457863808567e+00  5.4665782921483803e+00  5.5587073476424491e+00  5.7529898672268249e+00  6.0466035066550985e+00  6.5581828150954582e+00  7.5677815322261726e+00  8.9062687983406104e+00  9.9838187898481845e+00  1.2707853275703608e+01  1.3852544270651693e+01  1.4914449086715226e+01  1.6473988248168343e+01  1.7478660635659057e+01  1.8665012634995875e+01  2.0191439702389825e+01  2.0120079482231500e+01  2.0270740566687877e+01  2.0048903030014287e+01  1.9919046789869135e+01  1.9123637567304357e+01  1.8316277547206955e+01  1.7555469817024246e+01  1.6815714044082171e+01  1.6450348524983927e+01  1.5986183596064606e+01  1.5503586714883957e+01  1.527440600