<?xml version="1.0"?>
<VTKFile type="UnstructuredGrid"  version="0.1"  >
<UnstructuredGrid>
<Piece  NumberOfPoints="3542" NumberOfCells="6362">
<Points>
<DataArray  type="Float64"  NumberOfComponents="3"  format="ascii">-20 2 0  -20 0 0  -1 0 0  -0.9996988186962042 0.02454122852291233 0  -0.9987954562051724 0.04906767432741797 0  -0.9972904566786902 0.07356456359966773 0  -0.9951847266721968 0.09801714032956083 0  -0.99247953459871 0.1224106751992163 0  -0.989176509964781 0.1467304744553618 0  -0.9852776423889412 0.1709618887603012 0  -0.9807852804032304 0.1950903220161286 0  -0.9757021300385285 0.21910124015687 0  -0.970031253194544 0.2429801799032641 0  -0.9637760657954398 0.2667127574748985 0  -0.9569403357322088 0.2902846772544624 0  -0.9495281805930367 0.3136817403988914 0  -0.9415440651830207 0.3368898533922203 0  -0.9329927988347388 0.3598950365349883 0  -0.9238795325112867 0.3826834323650899 0  -0.9142097557035307 0.4052413140049899 0  -0.9039892931234433 0.427555093430282 0  -0.8932243011955152 0.4496113296546069 0  -0.8819212643483549 0.4713967368259979 0  -0.8700869911087113 0.4928981922297841 0  -0.857728610000272 0.5141027441932218 0  -0.8448535652497071 0.5349976198870972 0  -0.8314696123025453 0.5555702330196022 0  -0.8175848131515836 0.5758081914178454 0  -0.8032075314806448 0.5956993044924335 0  -0.7883464276266062 0.6152315905806269 0  -0.773010453362737 0.6343932841636455 0  -0.7572088465064846 0.6531728429537766 0  -0.7409511253549589 0.6715589548470186 0  -0.7242470829514668 0.6895405447370671 0  -0.7071067811865475 0.7071067811865476 0  -0.6895405447370669 0.7242470829514669 0  -0.6715589548470184 0.740951125354959 0  -0.6531728429537765 0.7572088465064847 0  -0.6343932841636454 0.7730104533627371 0  -0.6152315905806267 0.7883464276266063 0  -0.5956993044924334 0.8032075314806449 0  -0.5758081914178453 0.8175848131515837 0  -0.555570233019602 0.8314696123025455 0  -0.534997619887097 0.8448535652497072 0  -0.5141027441932217 0.8577286100002721 0  -0.492898192229784 0.8700869911087115 0  -0.4713967368259977 0.881921264348355 0  -0.4496113296546067 0.8932243011955152 0  -0.4275550934302819 0.9039892931234434 0  -0.4052413140049897 0.9142097557035307 0  -0.3826834323650897 0.9238795325112867 0  -0.3598950365349882 0.9329927988347388 0  -0.3368898533922199 0.9415440651830208 0  -0.3136817403988914 0.9495281805930367 0  -0.2902846772544622 0.9569403357322089 0  -0.2667127574748983 0.9637760657954398 0  -0.2429801799032639 0.970031253194544 0  -0.2191012401568697 0.9757021300385286 0  -0.1950903220161282 0.9807852804032304 0  -0.1709618887603012 0.9852776423889412 0  -0.1467304744553616 0.989176509964781 0  -0.1224106751992162 0.99247953459871 0  -0.09801714032956065 0.9951847266721969 0  -0.07356456359966733 0.9972904566786902 0  -0.04906767432741801 0.9987954562051724 0  -0.02454122852291214 0.9996988186962042 0  6.123233995736766e-17 1 0  0.02454122852291226 0.9996988186962042 0  0.04906767432741813 0.9987954562051724 0  0.07356456359966745 0.9972904566786902 0  0.09801714032956077 0.9951847266721968 0  0.1224106751992163 0.99247953459871 0  0.1467304744553617 0.989176509964781 0  0.1709618887603014 0.9852776423889412 0  0.1950903220161283 0.9807852804032304 0  0.2191012401568698 0.9757021300385286 0  0.242980179903264 0.970031253194544 0  0.2667127574748984 0.9637760657954398 0  0.2902846772544623 0.9569403357322089 0  0.3136817403988916 0.9495281805930367 0  0.3368898533922201 0.9415440651830208 0  0.3598950365349883 0.9329927988347388 0  0.3826834323650898 0.9238795325112867 0  0.4052413140049899 0.9142097557035307 0  0.4275550934302822 0.9039892931234433 0  0.4496113296546066 0.8932243011955153 0  0.4713967368259978 0.8819212643483549 0  0.4928981922297841 0.8700869911087113 0  0.5141027441932217 0.8577286100002721 0  0.5349976198870973 0.844853565249707 0  0.5555702330196023 0.8314696123025452 0  0.5758081914178453 0.8175848131515837 0  0.5956993044924335 0.8032075314806448 0  0.6152315905806268 0.7883464276266062 0  0.6343932841636455 0.773010453362737 0  0.6531728429537768 0.7572088465064845 0  0.6715589548470183 0.7409511253549591 0  0.6895405447370669 0.7242470829514669 0  0.7071067811865476 0.7071067811865475 0  0.724247082951467 0.6895405447370668 0  0.7409511253549591 0.6715589548470183 0  0.7572088465064846 0.6531728429537768 0  0.773010453362737 0.6343932841636455 0  0.7883464276266063 0.6152315905806268 0  0.8032075314806449 0.5956993044924334 0  0.8175848131515837 0.5758081914178453 0  0.8314696123025452 0.5555702330196022 0  0.8448535652497071 0.5349976198870972 0  0.8577286100002721 0.5141027441932217 0  0.8700869911087115 0.492898192229784 0  0.881921264348355 0.4713967368259976 0  0.8932243011955153 0.4496113296546065 0  0.9039892931234433 0.4275550934302821 0  0.9142097557035307 0.4052413140049899 0  0.9238795325112867 0.3826834323650898 0  0.932992798834739 0.3598950365349881 0  0.9415440651830208 0.3368898533922201 0  0.9495281805930367 0.3136817403988915 0  0.9569403357322088 0.2902846772544623 0  0.9637760657954398 0.2667127574748984 0  0.970031253194544 0.2429801799032639 0  0.9757021300385286 0.2191012401568698 0  0.9807852804032304 0.1950903220161282 0  0.9852776423889412 0.1709618887603012 0  0.989176509964781 0.1467304744553617 0  0.99247953459871 0.1224106751992162 0  0.9951847266721969 0.0980171403295606 0  0.9972904566786902 0.07356456359966743 0  0.9987954562051724 0.04906767432741801 0  0.9996988186962042 0.02454122852291229 0  1 0 0  20 0 0  20 2 0  0 2 0  10 2 0  -10 2 0  10.5 0 0  5 2 0  -10.5 0 0  -5 2 0  15 2 0  5.75 0 0  2.5 2 0  -15 2 0  -5.75 0 0  -2.5 2 0  15.25 0 0  3.375 0 0  -15.25 0 0  -3.375 0 0  17.5 2 0  17.625 0 0  -17.625 0 0  -17.5 2 0  -12.5 2 0  -12.875 0 0  8.125 0 0  7.5 2 0  12.875 0 0  12.5 2 0  -8.125 0 0  -7.5 2 0  -18.75 2 0  -18.8125 0 0  18.75 2 0  18.8125 0 0  -16.25 2 0  -16.4375 0 0  16.4375 0 0  16.25 2 0  13.75 2 0  -14.0625 0 0  -13.75 2 0  11.6875 0 0  -11.6875 0 0  -9.3125 0 0  8.75 2 0  -8.75 2 0  6.9375 0 0  6.25 2 0  -6.9375 0 0  -6.25 2 0  9.3125 0 0  -11.25 2 0  11.25 2 0  3.75 2 0  4.5625 0 0  -4.5625 0 0  -3.75 2 0  1.25 2 0  -1.25 2 0  14.0625 0 0  2.1875 0 0  -2.1875 0 0  -20 1 0  20 1 0  18.21875 0.982421875 0  -18.21875 0.982421875 0  16.875 1.0498046875 0  -17.03125 0.966796875 0  15.625 1.0625 0  -15.84375 0.953125 0  14.375 1.0732421875 0  -14.375 1.0732421875 0  1.830289387965117 1.052284088108649 0  -1.830289387965117 1.052284088108649 0  -3.125 1.08203125 0  -13.28477656888586 1.012129001112436 0  13.125 1.08203125 0  3.125 1.08203125 0  -4.375 1.0888671875 0  11.875 1.0888671875 0  -11.875 1.0888671875 0  4.203765290519877 1.0193030867737 0  -5.625 1.09375 0  5.625 1.09375 0  -10.80634835916782 1.025744365312066 0  10.625 1.09375 0  9.375 1.0966796875 0  -6.875 1.0966796875 0  -9.375 1.0966796875 0  6.684990875912408 1.03136405109489 0  -8.322099415573495 1.036062682633283 0  8.125 1.09765625 0  19.11075969939671 0.8508947319664032 0  -19.11075969939671 0.8508947319664032 0  -7.53125 0 0  8.71875 0 0  7.423362102206937 0.6655467048188293 0  9.90625 0 0  -6.34375 0 0  -10.07209987056368 0.6864155791813131 0  -5.15625 0 0  4.932893941568688 0.70313517104756 0  11.09375 0 0  -3.96875 0 0  12.28125 0 0  -12.56167362378033 0.7158719711052053 0  -15.12789358749343 1.239622257084254 0  19.375 2 0  -19.375 2 0  -7.586458743762512 0.7777256637040587 0  -8.876841588719831 0.5749490497356908 0  -2.78125 0 0  13.46875 0 0  2.486351124110562 0.6882204272146759 0  -2.484375 0.6875496078884429 0  13.765625 0.6685592193186988 0  6.127605163798639 0.5971727330055587 0  0.625 2 0  -0.625 2 0  -1.146535794159178 1.28513409566998 0  1.146535794159178 1.285134095669981 0  14.65625 0 0  14.953125 0.6512707752786624 0  -14.87682753143027 0.5890664696931456 0  12.578125 0.6384885491877257 0  -3.671875 0.6384885491877257 0  -15.625 2 0  -11.36675239212577 0.6158089665857418 0  15.00271470412651 1.324726469417674 0  17.53235848397354 0.7266244978817956 0  11.390625 0.6116981677410314 0  -4.859375 0.6116981677410314 0  15.84375 0 0  16.140625 0.6148897058823529 0  7.497593266890831 1.330710907262048 0  13.76254792112057 1.334335181755445 0  -10.20969602084016 1.352738855957021 0  17.03125 0 0  3.639986821556412 0.6311208834101457 0  -2.422032960990368 1.344610008595471 0  -1.875 2 0  2.42168763602468 1.344854035092462 0  1.875 2 0  -6.046875 0.5879464285714285 0  10.203125 0.5879464285714285 0  4.785027294216357 1.360955117010924 0  -16.43327865604348 1.32661481258014 0  -16.44139997701004 0.663326532427168 0  -12.71719161438206 1.366886164755866 0  9.015625 0.567039754702805 0  -13.85227446991684 0.6433291643838606 0  17.68435132148515 1.367585767263021 0  -8.125 2 0  -7.779164034427432 1.405551895778211 0  6.875 2 0  -16.875 2 0  16.25211206745888 1.264109755085799 0  -3.748868614850469 1.292331074664245 0  12.50113138514953 1.292331074664245 0  -4.999425840599162 1.238293400364507 0  11.25057415940084 1.238293400364507 0  10.00021284174179 1.186027320246887 0  -6.249787158258211 1.186027320246887 0  8.750028772491092 1.133996757348608 0  8.125 2 0  -9.375 2 0  -6.875 2 0  9.375 2 0  10.625 2 0  5.625 2 0  -5.625 2 0  -11.875 2 0  11.875 2 0  -4.375 2 0  3.125 2 0  13.125 2 0  -14.375 2 0  14.375 2 0  15.625 2 0  -18.125 2 0  16.875 2 0  -3.125 2 0  -10.625 2 0  4.375 2 0  -13.125 2 0  18.125 2 0  -17.62042339570457 1.322431301452557 0  -17.64048254773117 0.661277151197267 0  -1.59375 0 0  1.59375 0 0  -19.40625 0 0  19.40625 0 0  20 0.5 0  19.0625 1.466926268772181 0  -18.7305243036722 1.362703047674974 0  -5.451064633443578 0.5209722999527524 0  10.79893536655642 0.5209722999527524 0  9.610417111950763 0.5183010867631196 0  -13.46875 0 0  3.96875 0 0  -11.09375 0 0  6.34375 0 0  2.78125 0 0  -8.71875 0 0  -12.28125 0 0  5.15625 0 0  -9.90625 0 0  7.53125 0 0  -15.84375 0 0  -17.03125 0 0  -18.21875 0 0  18.21875 0 0  -14.65625 0 0  20 1.5 0  -19.48071156660626 1.370757229128913 0  -20 0.5 0  -4.24552725411087 0.5169543671041
[...]
<PointData  Scalars="f_2203938"> 
<DataArray  type="Float64"  Name="f_2203938"  format="ascii">7.4042497903933078e-04  -6.1231880568141269e-04  -2.0984417517438425e-03  -6.8126887609225488e-03  -7.1794564371256151e-03  -1.4816399963778541e-02  -2.6436757207508765e-02  -3.9786863664273094e-02  -5.7331954861857881e-02  -8.4355203090369119e-02  -9.6523089348492130e-02  -1.1733109131353660e-01  -1.5416204615876553e-01  -1.8589740372742763e-01  -2.2208619340559735e-01  -2.6056327616760511e-01  -3.0068007876733960e-01  -3.4458054097931634e-01  -3.8868503944509514e-01  -4.3565830783865123e-01  -4.8373001786137099e-01  -5.3903591317116784e-01  -5.9119345406559498e-01  -6.4274191738931630e-01  -6.9556549519597655e-01  -7.5120961829078092e-01  -8.0346319370535424e-01  -8.4989304743251626e-01  -9.0099245679868911e-01  -9.5163269261208372e-01  -9.9663056963274144e-01  -1.0388658720435233e+00  -1.0976622413298203e+00  -1.1355169246394243e+00  -1.1495783856085788e+00  -1.1672534106809496e+00  -1.1690695923417316e+00  -1.1734714351985067e+00  -1.1922098336513500e+00  -1.1731422643070855e+00  -1.1340173265543179e+00  -1.1065073690256337e+00  -1.0513225050622235e+00  -9.8301533048962364e-01  -9.0416938679726955e-01  -6.2972876904231878e-01  -1.0996638929232114e+00  -5.9358554375622752e-01  -4.0578038754821039e-01  -2.3928853777669107e-01  -3.4136479660825017e-02  1.2358593981751992e-01  3.9510767533402225e-01  6.1412862449804673e-01  8.0396542313002661e-01  1.0588919720158212e+00  1.2267730323682013e+00  1.4392598698606012e+00  1.7372874459308256e+00  2.0186769604036918e+00  2.1385642113627958e+00  2.4830837369386849e+00  2.7352069645894361e+00  2.7829605058348590e+00  3.0688889120872833e+00  3.2538146042928409e+00  3.2302697357908117e+00  3.3552415654846039e+00  3.3112428117070145e+00  3.5385391071291625e+00  3.6545233506884647e+00  3.5633960962169096e+00  3.6004692006113372e+00  3.6327091753309926e+00  3.6257574018192966e+00  3.5321653808671862e+00  3.4619401061182393e+00  3.3707188405277511e+00  2.9213960858107759e+00  3.1758941784849175e+00  3.0706815933152356e+00  3.0398336664618228e+00  2.9297266773727508e+00  2.7544854319864820e+00  2.6494482635185537e+00  2.5301083055262157e+00  2.3866530159641841e+00  2.2589072695048316e+00  2.1272984530846921e+00  2.0267999000266643e+00  1.9212637801493047e+00  1.8163828571626954e+00  1.7097260970480634e+00  1.6059427751774373e+00  1.5062084653328469e+00  1.4100166536908685e+00  1.3080653727918288e+00  1.2156674436829471e+00  1.1320025900437196e+00  1.0508918630913271e+00  9.7436780546723767e-01  9.0215902071796739e-01  8.3328451164690376e-01  7.6930793886327065e-01  7.0575863265656658e-01  6.4654625436184676e-01  5.9439122768819463e-01  5.4077237831587954e-01  4.9430096278308505e-01  4.4626406481238201e-01  4.0122988807780635e-01  3.5741788884528686e-01  3.2215429502431370e-01  2.8775564374340795e-01  2.3946230185670886e-01  2.3330174422440331e-01  2.0050053128674786e-01  1.6585912941379613e-01  1.3888801742188098e-01  1.1482920007387760e-01  9.7301505144988323e-02  7.7826990777132662e-02  6.1206804845761069e-02  4.5987073334802453e-02  3.4515039462166386e-02  2.5367033887618535e-02  1.5757748999879344e-02  1.0111305603866687e-02  3.6243564243332175e-03  6.1722855817361562e-03  2.2465707902497374e-03  -9.3522229784008328e-08  6.9186209703268783e-08  6.3698915277821611e-01  -9.9906814927135208e-08  -5.4996043747213630e-09  -1.1207386422924692e-07  -7.1305303953374442e-05  3.2459680990912629e-08  1.8548829899780752e-05  -6.5158004103375191e-08  1.3682693928093319e-04  -1.3284032402770068e-02  -1.1144884532589655e-07  -7.1380689407874983e-05  1.0927034985910916e-02  -3.2020879158376960e-08  2.9121639377043207e-02  2.3167525827224676e-06  -2.3348263685648019e-02  -1.3113998282847262e-08  -2.9788216205587974e-08  2.2036943716586651e-04  -4.3428173693808920e-05  7.0959170470938113e-09  -2.7271272608103565e-08  -1.6651261488668761e-06  8.9909599384539433e-07  -1.3463569190251578e-08  -6.8531958157738275e-08  1.2630254627898680e-06  -5.0330541672417534e-07  -2.8764827767365457e-04  4.3059653642244048e-04  -8.0933740893247765e-08  -9.1765118222362976e-08  -3.6115156974353421e-06  3.1819700147480074e-05  -1.7987348675804786e-08  -1.2683578479564520e-07  -8.6830039968622793e-08  6.4653905135195396e-08  8.9996002118617033e-09  -6.7626398973726141e-08  3.6081283744430078e-08  1.7905824088156580e-07  3.1513901027558798e-09  -5.2006033043774673e-08  -3.6705056399883270e-06  4.9778016834718417e-06  4.4856763517426840e-06  -3.2807696840870180e-06  -2.9028483749049465e-07  -2.7052828289110692e-09  -1.5672611838740911e-08  -1.6537071883704515e-03  2.7388840284165608e-03  -1.9281044234973348e-03  9.0384800423688998e-04  6.3070414868852606e-02  1.4635981354449537e-01  -4.3783586180940065e-08  1.7891997868256110e-01  -1.5950704214362127e-01  -4.0801110097177321e-04  -3.7988202230198738e-07  -3.4648645405926115e-07  -4.4864371797138727e-05  -3.7504160495108904e-07  -2.5445001312279893e-05  -4.0319896029713148e-07  -3.0187688329306277e-06  -3.8332248763531313e-07  -1.2008116151297713e-07  -1.0709428016587705e-01  6.2757607016335260e-02  1.3289356377345204e-02  2.0710618951004703e-08  -3.8932828003171515e-07  -2.0709895158581779e-02  1.2469121612060333e-03  -3.7646856609094902e-07  -6.0062577079994970e-09  -2.4911672520221842e-03  5.5050685268167037e-05  -1.1456274499885978e-04  4.8589454903604068e-09  -3.8713677434891241e-07  -3.0738733802499232e-07  -9.4771464187391037e-07  -5.1015526798853005e-08  -3.4766700739673737e-06  -2.6679376507494915e-07  2.9238420779122225e-07  -3.3262248512175351e-07  3.9690357731191522e-04  2.8153040880406317e-06  -6.3996930504496956e-07  -2.3146079771149122e-06  -1.3578736177696859e-07  -3.7487232135803574e-06  3.4140808870299761e-09  -4.5445749059368223e-04  6.0716735881342786e-06  -7.6245491208919035e-08  -7.3458283643900073e-03  -3.0819488864941860e-08  2.9562963535813673e-09  -1.0672616935703117e-06  -8.0072542372962594e-08  -3.9663666912766849e-04  4.5539355552694325e-07  1.1402897133783009e-07  -6.6248719905007844e-02  -2.6664820779616073e-08  2.9034577892696121e-02  -2.4447440703143766e-02  -2.8440627090374234e-07  -7.1472902697785253e-06  3.6806264896624707e-01  3.7889510455744635e-01  2.0480810679528832e-01  -3.6001639045805223e-01  -4.0457002926578622e-08  -2.9005412235004336e-07  8.5193178544766816e-08  -2.3829377966480924e-07  -2.7822426851709871e-03  -7.6857691511250477e-07  1.1598203582115307e-08  -4.3949606611089256e-07  -2.7493462703286344e-07  -2.5641374929630345e-07  -1.4134597498463740e-04  -7.7263170846951744e-09  -2.4635366080025981e-07  2.4014307596512937e-06  -4.2143703969895025e-07  -6.0423970223359681e-09  -1.1717927771873008e-08  4.6885307639325975e-03  6.1264226182797366e-02  4.0392944270492032e-02  -9.8022740326011853e-02  -1.5512263906128176e-02  7.6979071054417347e-06  -2.6337840299937160e-07  -1.0074827149331117e-03  -2.1228575260911169e-05  5.8796337212917065e-06  2.1246919628790990e-08  -3.8963813908044437e-07  -2.8977149288836663e-08  -4.2605604199377281e-07  -1.9698576684796883e-07  -1.3196487938728765e-06  2.0190314253477435e-06  -1.3358190722413343e-05  -4.4771763362212344e-07  5.7816553638285369e-03  -4.5447305489297393e-07  3.1337640996381683e-04  -3.9400911883463206e-07  -3.1738774120904760e-07  3.2128263370622647e-06  -1.0972244703130870e-07  2.7709756985554921e-07  -1.9975350736061206e-08  -1.5240071989828972e-06  1.7980519681359827e-08  -4.1773877090774467e-08  -5.5972651788649793e-06  -3.4129152906870794e-06  -2.2387296285699860e-10  -4.9493250163258764e-08  1.3016507942020949e-04  -5.7257363175255600e-03  -4.8786003436393587e-08  -2.1178543822359144e-09  -3.6163008920278626e-08  -7.8813205780190621e-08  -8.4215792479076508e-05  -3.9945145051878268e-08  2.8786874678554475e-03  -4.9261881381330001e-10  -3.9009376275645153e-04  1.0377749281050556e-08  -6.5831474351919519e-08  -1.5803341793336437e-04  7.4287022034938018e-05  -3.0779984575258490e-01  3.1314979285698064e-01  -4.9660265204776123e-04  -1.3104204992607553e-07  -2.7035681790114839e-07  -4.0140499725685311e-07  -3.8372897746248282e-04  -3.4891673637915992e-05  -2.7765131831606602e-07  -3.3478734350100881e-07  -3.7229516915714019e-08  9.9685492335137640e-03  3.1893464970397501e-08  1.5177836663968112e-05  7.9798362322045749e-02  4.9125337369651955e-07  7.5616083030064981e-09  7.0377495077267348e-04  6.6577373101620691e-08  -3.4490470677274409e-06  9.4747282662594698e-06  9.2150910909773043e-05  4.1652864158340115e-04  -2.8461073110196594e-08  5.1430045825382175e-07  -4.2476929598689359e-07  7.7212256149569746e-04  -6.7261234442109359e-04  -1.5029103056622695e-03  -2.6059666776021479e-07  9.9125860964414405e-09  4.0040146375187066e-04  -3.9256997061472545e-07  -2.8116404432947291e-07  -2.5627535893535441e-07  -2.6276244633119685e-07  -1.9203073580165975e-02  2.5868783839137707e-02  -1.8653624796605911e-01  2.5694786237983919e-01  -2.2346667646477173e-07  2.2694958874133030e-06  2.3157862081239837e-08  -2.5535579502509840e-07  -1.6382989372304018e-02  -5.5505896353319573e-01  3.6014650305224404e-02  -9.1623437841773253e-09  2.2885808786076021e-09  -1.7457726531452608e-04  5.8546500310624843e-05  -1.0966332683447600e-05  -3.1161498674392932e-06  5.4764729293382757e-06  -2.4978823915003640e-08  4.1227499756316181e-08  -1.1343544661959569e-07  -7.7163838156268933e-07  -3.3044265150598835e-08  4.6898108666184434e-08  2.6926604002822999e-03  -5.4936092134104716e-03  6.7772088158474757e-09  -9.5608182464507230e-09  -1.7620410293161398e-07  -6.4283579194183204e-06  3.2479619044313566e-07  -2.5233602699394105e-07  -5.6474729495361784e-06  7.0471125497038754e-06  5.9534466578847308e-07  -3.5531357199536123e-07  -3.8712468315712888e-07  5.3766989562232098e-06  -7.3237535307273271e-05  -4.7289449341969756e-07  -3.5250954494996435e-07  -6.6435882082125873e-06  -5.0909575290012193e-06  -4.2571680054848715e-07  7.2117564898456065e-09  -4.1541479430329281e-04  1.9023437613212238e-01  -3.1079357923665496e-01  1.4895564426957930e-01  3.0335583902331624e-06  -9.7715887232007095e-02  6.4159889347119981e-07  -2.2537098028437373e-07  -1.3165831821801769e-07  -4.4363581125681490e-07  5.0898265512306917e-05  -1.1414208795355722e-06  4.5020550877641820e-04  -4.7257615230423621e-07  -5.0005648319184639e-07  -2.1888707590393953e-05  2.7626631679660924e-04  -4.8747331926958219e-07  -4.6419111787357552e-07  4.2222936927864817e-05  -4.5657488200277804e-02  2.7963154936441408e-02  -1.9715110753310711e-09  -3.0404289800988497e-07  -5.0860379285899043e-04  -3.8842899051182409e-07  -4.2119243507797454e-07  1.9716969258699573e-03  8.4841090958665925e-03  -5.0304984113630587e-07  -8.7817332625074202e-03  1.2965544134799337e-06  -4.1571472059174185e-07  8.9703966244211156e-09  -5.1654829764448897e-07  -4.6958786488288885e-07  5.3932553823499193e-06  4.8010682597308259e-09  -1.7679289651493626e-06  -8.2864711464521624e-04  9.5086771109759148e-09  1.1718684324319889e-01  -1.8900361060733800e-01  2.8630539588369808e-01  -4.4797285585622276e-01  -2.1810410029186886e-07  -3.8066243037289301e-04  -2.9545207832649270e-07  3.2061244085686557e-04  -1.4444577076002945e-08  -1.0620594535839049e-06  -4.0644798047032295e-07  1.2107347746080131e-04  1.1368466671077001e-04  1.3642360740563333e-01  -2.6499921858812808e-01  -3.2914686934225984e-07  -2.7229730894326245e-07  1.1285257041759734e-04  -3.3795103891592773e-07  -7.2005362595017555e-05  4.6367525842535992e-07  1.7550216010095078e-03  -3.3498805576455740e-07  -4.3427007653460683e-09  -4.8869125260602034e-06  1.3644106621126361e-04  -2.4762330570497508e-03  -4.4786518883458475e-07  -1.0933677525589741e-06  4.0585831942803097e-08  3.9741945538283578e-09  4.1267658724533202e-08  1.0858534691939931e-08  -3.1770068383324952e-05  2.1436155506121618e-07  -9.6766544889744763e-05  -1.0354847676522323e-03  1.5157893264413299e-03  1.4667279628626721e-03  -3.5365621171405298e-07  4.4522173109591945e-02  1.9605395602796585e-08  -2.6873492612455633e-08  1.7528014987750276e-04  -1.6585069316721814e-07  1.8718222689015799e-06  2.4599661967348290e-06  -3.2432254995682717e-07  -3.3048069500994508e-07  -5.3845019831419034e-07  -4.3135914685997168e-07  2.7437773706181762e-01  3.1747739772900866e-09  -2.1844418130924118e-09  3.9358528212079683e-06  -6.9122730352300800e-07  -3.6817851874379946e-07  -1.7723511904112619e-04  -3.2502012440959703e-07  -2.8426158891518498e-06  2.1798616636636462e-02  -3.4588398000738860e-02  1.2104666893480297e-01  6.5618174022460785e-02  -2.0274835505415894e-04  -4.4634428663279372e-08  -5.2061563731074435e-02  -9.7361474099634665e-02  3.0623922242315617e-02  -8.2510035436180740e-02  1.4596787884617133e-06  -3.5710828520217595e-06  3.7162681461442578e-04  3.9685575639671023e-06  -4.7988885568613805e-07  -4.6178176732984293e-06  -9.8253247266667065e-02  6.4263591826416430e-02  -3.0626820417314661e-07  8.1407492282123772e-09  -3.7503102978531661e-07  -2.4574141700100562e-07  -2.5775024446435334e-07  -4.0416794526272378e-05  -2.5785660347775580e-01  -5.5900868331059729e-09  1.5091981828781259e-07  -2.0390634877437085e-08  1.0540517221240939e-07  3.3859968532313432e-08  -6.3352312945069841e-04  -1.4272237405161862e-07  -1.2877002886580210e-03  -1.4035279638472848e-05  1.2661990335387558e-04  -3.7618565667039910e-07  -2.0533164221562793e-07  -2.2955273991389460e-07  -3.3665390919186295e-07  7.9097593503895877e-03  6.3187618963303244e-04  3.9054468034566150e-03  -5.1441376738595434e-07  -9.8646006266126707e-06  5.7706968397284894e-05  -3.7434307537787928e-05  -2.4810142963349895e-04  -5.1154431257093473e-03  -2.4572459990811875e-07  -2.3114891810524770e-07  -1.3990753292222340e-02  -1.2841315277731459e-03  -3.0110074381085893e-07  -2.2174003648343926e-07  3.8157341795262456e-09  -1.1496580137980206e-05  -9.2222966011196879e-06  1.2892312584290181e-06  3.3252819190177538e-05  -4.5383518238327390e-05  -6.9729135893090965e-05  1.2682278745189631e-08  1.5866517068981229e-08  5.0583301421577635e-09  -2.3466684896714979e-01  -2.2383305025560890e-01  -4.9266718389794739e-07  3.1430882089296050e-04  2.2965155366847279e-04  -2.2050598558419706e-04  -1.2329241405708609e-04  -4.3732545595850544e-07  3.2293369255965401e-04  7.1278221373394322e-03  -8.2930437255476679e-06  -6.4977331455068780e-06  1.7398630346457923e-02  -2.0728902490791442e-08  -3.8563252679596792e-07  -3.8557748319149585e-07  -2.0657935098538939e-07  -2.5220497358188758e-07  -1.9478043828172223e-06  -2.0293798698910585e-07  -1.0849140887695234e-03  -6.2414335076726754e-09  -3.1138161994389267e-07  9.2279692788911432e-05  -2.5637051352675202e-07  -6.6281207265449412e-08  -1.0832759397069241e-03  -9.6087502368413444e-04  -2.6684553964561019e-04  -2.8968397765984762e-07  1.7853478876524396e-05  1.9249715021527485e-05  -3.6860452758958508e-07  5.4207351260427978e-04  -1.1757370165630061e-08  -4.6034360640642255e-08  -5.0449926239094368e-07  -8.8927927102618394e-10  -3.7032745695072920e-04  -2.4876564144424399e-07  4.4723654849767940e-04  5.4805960492117618e-05  -2.2181438090770085e-05  -1.3319158530722421e-05  1.3968041364190782e-08  6.5795506905621214e-09  1.7782745016754615e-08  -8.0653938498260873e-08  -4.3142381896617106e-07  -7.4137881133636273e-07  -4.1182735081558989e-07  -5.2035396943755130e-07  -9.2247330352987307e-08  -4.0268682571419143e-06  4.3598104916196091e-04  -1.0177485946990337e-06  -4.4196819572384058e-07  -7.9637506620505195e-09  -3.0851449790743360e-07  -1.1635511609481834e-01  3.2835341367973700e-08  -4.3989719570965448e-07  -4.1454475268220800e-07  -4.8876753149086421e-07  -4.4244850713901158e-07  -2.6839130669103241e-07  -3.5540231706587434e-07  2.4141341951465656e-05  2.0466840334153008e-05  -2.5596408841209882e-07  -1.1001317966175998e-07  -2.9042528678476862e-05  -2.3826407127547650e-05  -3.4029331402336703e-07  2.7869117738257400e-06  -1.7323101656187659e-06  -7.0102964144465290e-07  -8.1181576519067391e-07  -3.2245560620347599e-07  1.8776359812371688e-08  -1.8887379125756759e-08  -3.2163905845109320e-07  -6.8804323888435010e-08  9.8369136134320145e-03  -4.1603707463419768e-08  -1.2726431466784007e-02  -1.1699119442939170e-08  -1.5811465511164469e-01  -2.3296100519507054e-06  1.1701858027586825e-06  9.7783411189750959e-09  1.6841113410180467e-02  -4.7031428759279502e-07  -3.4770858221457179e-07  -3.0903456474029878e-01  3.0116940177803692e-01  -4.0090768876593090e-07  -3.9588805105111982e-07  1.2759035737356695e-04  2.7225593024831304e-03  -4.5968030685212382e-07  -2.9618710453743990e-07  -2.8403436472297368e-07  -4.2873102904037264e-07  3.1479371810389838e-02  2.5614580752677318e-05  -2.5959552459263566e-04  -2.2109582171526254e-01  5.5064152233442387e-01  -9.8998258591682453e-04  3.9820523609022311e-06  2.5263009822078020e-01  2.7316922730221183e-01  -1.1912037719451443e-08  -8.0433092429156091e-08  2.3950719067686863e-01  -5.3559041861879053e-01  1.7316723187905778e-07  8.4854146606950891e-06  -7.8589064080139932e-09  2.1872381966200789e-07  7.4448315576356724e-08  -7.9580532290181251e-04  -3.4938640428504883e-07  -4.3789382557024364e-01  2.4338621522433979e-01  -2.3331122510918154e-02  -3.0592462872844810e-07  -4.4753695013969821e-02  1.0049235463076254e-08  2.9656805437514634e-07  -3.1792655877089156e-07  -4.2681546585102773e-07  -4.0166190203950861e-07  3.3750860237466611e-08  1.9915000562892093e-06  2.0978212157687392e-06  -3.8866406713206065e-08  -3.6443534652978814e-07  -1.3792769463241811e-04  -6.2439312263105316e-06  1.7584963447440596e-01  2.5017153090047622e-01  -5.4986114781988742e-04  -3.0821883327484868e-07  -8.2179692252486142e-08  -8.2032065533117402e-08  3.5484218085553461e-04  -1.0851033284226688e-07  5.5876382560769581e-03  -9.0444097538184033e-03  -1.5193060106137388e-07  -7.3627369144725866e-08  5.6648375781146079e-05  1.1113219347161213e-06  -1.4101281188281204e-07  -1.2073968407857682e-03  7.9354208216222369e-02  1.3212071840699917e-08  -3.3970564242584369e-06  -2.0445345105933641e-06  1.8594834049939381e-08  -4.5745410334309580e-08  -4.7648883570394102e-08  1.9048794256787067e-07  -1.7462799763630289e-06  -4.5758140078074504e-08  -6.4514060577676772e-08  -2.8176527216390296e-08  -1.3472992069753162e-08  -9.0654804771465317e-07  -8.5404103566307735e-05  6.2112278127521034e-07  -2.7358198042096449e-05  6.4662281417610941e-10  -1.9641770907929053e-09  -5.6888739821778933e-09  -3.0789255646720077e-03  1.2685677887552816e-08  -6.9884090012134714e-08  -1.1112225654487811e-07  5.8389775130210242e-01  1.5845177142407118e-03  -5.8424999835236099e-08  -1.7817547849413504e-02  1.9897730628632804e-02  -8.0678851398895694e-08  3.2190950973395566e-06  5.1627998243503988e-07  -8.1139947111088841e-09  3.7173951153309071e-02  1.5158106551762709e-01  -1.7396764781912253e-04  -3.9956141278198319e-02  3.7646734172689892e-05  -3.6206363462656922e-07  -4.3405522404883356e-07  -4.0977338875307360e-07  -4.2555068930944904e-06  8.4408590937660446e-04  8.8814460056390785e-04  -4.4607731436045162e-07  3.4099881896899069e-06  -2.4466551372745631e-07  -7.4487040468054717e-09  3.5298330292457925e-01  -1.3441917112933891e-07  -4.6096070176676453e-07  -3.0909879657314154e-01  -2.6675269763856918e-01  -1.9529662077216511e-07  1.2093181120703513e-01  -3.9460948841279603e-08  -3.9094166316857564e-03  4.4307890613688320e-06  -8.6997020218688830e-09  9.3571264443131900e-09  -7.2179255965018767e-05  -4.5640755066525015e-07  -4.1183852360741083e-02  -2.9365095003511120e-07  1.4220172845587936e-07  1.3689633808145372e-06  -6.2783661802762270e-08  -1.9462425688185394e-04  -1.0460293557062003e-01  -4.1559257809775516e-06  -1.7026630880565044e-07  -9.2711214213222278e-08  3.1111331351214083e-07  -9.5920383484145799e-07  -4.4263940272493272e-07  8.9524762151991292e-07  4.8034483793221023e-04  -7.0754921847013484e-08  1.2063912715850435e-01  1.4843367467883966e-04  1.4440454293571629e-04  -1.1882630060525125e-07  3.9064714802383971e-06  7.4813507979994688e-07  3.2536180817790351e-08  5.3966374117273173e-03  -3.76