<?xml version="1.0"?>
<VTKFile type="UnstructuredGrid"  version="0.1"  >
<UnstructuredGrid>
<Piece  NumberOfPoints="3542" NumberOfCells="6362">
<Points>
<DataArray  type="Float64"  NumberOfComponents="3"  format="ascii">-20 2 0  -20 0 0  -1 0 0  -0.9996988186962042 0.02454122852291233 0  -0.9987954562051724 0.04906767432741797 0  -0.9972904566786902 0.07356456359966773 0  -0.9951847266721968 0.09801714032956083 0  -0.99247953459871 0.1224106751992163 0  -0.989176509964781 0.1467304744553618 0  -0.9852776423889412 0.1709618887603012 0  -0.9807852804032304 0.1950903220161286 0  -0.9757021300385285 0.21910124015687 0  -0.970031253194544 0.2429801799032641 0  -0.9637760657954398 0.2667127574748985 0  -0.9569403357322088 0.2902846772544624 0  -0.9495281805930367 0.3136817403988914 0  -0.9415440651830207 0.3368898533922203 0  -0.9329927988347388 0.3598950365349883 0  -0.9238795325112867 0.3826834323650899 0  -0.9142097557035307 0.4052413140049899 0  -0.9039892931234433 0.427555093430282 0  -0.8932243011955152 0.4496113296546069 0  -0.8819212643483549 0.4713967368259979 0  -0.8700869911087113 0.4928981922297841 0  -0.857728610000272 0.5141027441932218 0  -0.8448535652497071 0.5349976198870972 0  -0.8314696123025453 0.5555702330196022 0  -0.8175848131515836 0.5758081914178454 0  -0.8032075314806448 0.5956993044924335 0  -0.7883464276266062 0.6152315905806269 0  -0.773010453362737 0.6343932841636455 0  -0.7572088465064846 0.6531728429537766 0  -0.7409511253549589 0.6715589548470186 0  -0.7242470829514668 0.6895405447370671 0  -0.7071067811865475 0.7071067811865476 0  -0.6895405447370669 0.7242470829514669 0  -0.6715589548470184 0.740951125354959 0  -0.6531728429537765 0.7572088465064847 0  -0.6343932841636454 0.7730104533627371 0  -0.6152315905806267 0.7883464276266063 0  -0.5956993044924334 0.8032075314806449 0  -0.5758081914178453 0.8175848131515837 0  -0.555570233019602 0.8314696123025455 0  -0.534997619887097 0.8448535652497072 0  -0.5141027441932217 0.8577286100002721 0  -0.492898192229784 0.8700869911087115 0  -0.4713967368259977 0.881921264348355 0  -0.4496113296546067 0.8932243011955152 0  -0.4275550934302819 0.9039892931234434 0  -0.4052413140049897 0.9142097557035307 0  -0.3826834323650897 0.9238795325112867 0  -0.3598950365349882 0.9329927988347388 0  -0.3368898533922199 0.9415440651830208 0  -0.3136817403988914 0.9495281805930367 0  -0.2902846772544622 0.9569403357322089 0  -0.2667127574748983 0.9637760657954398 0  -0.2429801799032639 0.970031253194544 0  -0.2191012401568697 0.9757021300385286 0  -0.1950903220161282 0.9807852804032304 0  -0.1709618887603012 0.9852776423889412 0  -0.1467304744553616 0.989176509964781 0  -0.1224106751992162 0.99247953459871 0  -0.09801714032956065 0.9951847266721969 0  -0.07356456359966733 0.9972904566786902 0  -0.04906767432741801 0.9987954562051724 0  -0.02454122852291214 0.9996988186962042 0  6.123233995736766e-17 1 0  0.02454122852291226 0.9996988186962042 0  0.04906767432741813 0.9987954562051724 0  0.07356456359966745 0.9972904566786902 0  0.09801714032956077 0.9951847266721968 0  0.1224106751992163 0.99247953459871 0  0.1467304744553617 0.989176509964781 0  0.1709618887603014 0.9852776423889412 0  0.1950903220161283 0.9807852804032304 0  0.2191012401568698 0.9757021300385286 0  0.242980179903264 0.970031253194544 0  0.2667127574748984 0.9637760657954398 0  0.2902846772544623 0.9569403357322089 0  0.3136817403988916 0.9495281805930367 0  0.3368898533922201 0.9415440651830208 0  0.3598950365349883 0.9329927988347388 0  0.3826834323650898 0.9238795325112867 0  0.4052413140049899 0.9142097557035307 0  0.4275550934302822 0.9039892931234433 0  0.4496113296546066 0.8932243011955153 0  0.4713967368259978 0.8819212643483549 0  0.4928981922297841 0.8700869911087113 0  0.5141027441932217 0.8577286100002721 0  0.5349976198870973 0.844853565249707 0  0.5555702330196023 0.8314696123025452 0  0.5758081914178453 0.8175848131515837 0  0.5956993044924335 0.8032075314806448 0  0.6152315905806268 0.7883464276266062 0  0.6343932841636455 0.773010453362737 0  0.6531728429537768 0.7572088465064845 0  0.6715589548470183 0.7409511253549591 0  0.6895405447370669 0.7242470829514669 0  0.7071067811865476 0.7071067811865475 0  0.724247082951467 0.6895405447370668 0  0.7409511253549591 0.6715589548470183 0  0.7572088465064846 0.6531728429537768 0  0.773010453362737 0.6343932841636455 0  0.7883464276266063 0.6152315905806268 0  0.8032075314806449 0.5956993044924334 0  0.8175848131515837 0.5758081914178453 0  0.8314696123025452 0.5555702330196022 0  0.8448535652497071 0.5349976198870972 0  0.8577286100002721 0.5141027441932217 0  0.8700869911087115 0.492898192229784 0  0.881921264348355 0.4713967368259976 0  0.8932243011955153 0.4496113296546065 0  0.9039892931234433 0.4275550934302821 0  0.9142097557035307 0.4052413140049899 0  0.9238795325112867 0.3826834323650898 0  0.932992798834739 0.3598950365349881 0  0.9415440651830208 0.3368898533922201 0  0.9495281805930367 0.3136817403988915 0  0.9569403357322088 0.2902846772544623 0  0.9637760657954398 0.2667127574748984 0  0.970031253194544 0.2429801799032639 0  0.9757021300385286 0.2191012401568698 0  0.9807852804032304 0.1950903220161282 0  0.9852776423889412 0.1709618887603012 0  0.989176509964781 0.1467304744553617 0  0.99247953459871 0.1224106751992162 0  0.9951847266721969 0.0980171403295606 0  0.9972904566786902 0.07356456359966743 0  0.9987954562051724 0.04906767432741801 0  0.9996988186962042 0.02454122852291229 0  1 0 0  20 0 0  20 2 0  0 2 0  10 2 0  -10 2 0  10.5 0 0  5 2 0  -10.5 0 0  -5 2 0  15 2 0  5.75 0 0  2.5 2 0  -15 2 0  -5.75 0 0  -2.5 2 0  15.25 0 0  3.375 0 0  -15.25 0 0  -3.375 0 0  17.5 2 0  17.625 0 0  -17.625 0 0  -17.5 2 0  -12.5 2 0  -12.875 0 0  8.125 0 0  7.5 2 0  12.875 0 0  12.5 2 0  -8.125 0 0  -7.5 2 0  -18.75 2 0  -18.8125 0 0  18.75 2 0  18.8125 0 0  -16.25 2 0  -16.4375 0 0  16.4375 0 0  16.25 2 0  13.75 2 0  -14.0625 0 0  -13.75 2 0  11.6875 0 0  -11.6875 0 0  -9.3125 0 0  8.75 2 0  -8.75 2 0  6.9375 0 0  6.25 2 0  -6.9375 0 0  -6.25 2 0  9.3125 0 0  -11.25 2 0  11.25 2 0  3.75 2 0  4.5625 0 0  -4.5625 0 0  -3.75 2 0  1.25 2 0  -1.25 2 0  14.0625 0 0  2.1875 0 0  -2.1875 0 0  -20 1 0  20 1 0  18.21875 0.982421875 0  -18.21875 0.982421875 0  16.875 1.0498046875 0  -17.03125 0.966796875 0  15.625 1.0625 0  -15.84375 0.953125 0  14.375 1.0732421875 0  -14.375 1.0732421875 0  1.830289387965117 1.052284088108649 0  -1.830289387965117 1.052284088108649 0  -3.125 1.08203125 0  -13.28477656888586 1.012129001112436 0  13.125 1.08203125 0  3.125 1.08203125 0  -4.375 1.0888671875 0  11.875 1.0888671875 0  -11.875 1.0888671875 0  4.203765290519877 1.0193030867737 0  -5.625 1.09375 0  5.625 1.09375 0  -10.80634835916782 1.025744365312066 0  10.625 1.09375 0  9.375 1.0966796875 0  -6.875 1.0966796875 0  -9.375 1.0966796875 0  6.684990875912408 1.03136405109489 0  -8.322099415573495 1.036062682633283 0  8.125 1.09765625 0  19.11075969939671 0.8508947319664032 0  -19.11075969939671 0.8508947319664032 0  -7.53125 0 0  8.71875 0 0  7.423362102206937 0.6655467048188293 0  9.90625 0 0  -6.34375 0 0  -10.07209987056368 0.6864155791813131 0  -5.15625 0 0  4.932893941568688 0.70313517104756 0  11.09375 0 0  -3.96875 0 0  12.28125 0 0  -12.56167362378033 0.7158719711052053 0  -15.12789358749343 1.239622257084254 0  19.375 2 0  -19.375 2 0  -7.586458743762512 0.7777256637040587 0  -8.876841588719831 0.5749490497356908 0  -2.78125 0 0  13.46875 0 0  2.486351124110562 0.6882204272146759 0  -2.484375 0.6875496078884429 0  13.765625 0.6685592193186988 0  6.127605163798639 0.5971727330055587 0  0.625 2 0  -0.625 2 0  -1.146535794159178 1.28513409566998 0  1.146535794159178 1.285134095669981 0  14.65625 0 0  14.953125 0.6512707752786624 0  -14.87682753143027 0.5890664696931456 0  12.578125 0.6384885491877257 0  -3.671875 0.6384885491877257 0  -15.625 2 0  -11.36675239212577 0.6158089665857418 0  15.00271470412651 1.324726469417674 0  17.53235848397354 0.7266244978817956 0  11.390625 0.6116981677410314 0  -4.859375 0.6116981677410314 0  15.84375 0 0  16.140625 0.6148897058823529 0  7.497593266890831 1.330710907262048 0  13.76254792112057 1.334335181755445 0  -10.20969602084016 1.352738855957021 0  17.03125 0 0  3.639986821556412 0.6311208834101457 0  -2.422032960990368 1.344610008595471 0  -1.875 2 0  2.42168763602468 1.344854035092462 0  1.875 2 0  -6.046875 0.5879464285714285 0  10.203125 0.5879464285714285 0  4.785027294216357 1.360955117010924 0  -16.43327865604348 1.32661481258014 0  -16.44139997701004 0.663326532427168 0  -12.71719161438206 1.366886164755866 0  9.015625 0.567039754702805 0  -13.85227446991684 0.6433291643838606 0  17.68435132148515 1.367585767263021 0  -8.125 2 0  -7.779164034427432 1.405551895778211 0  6.875 2 0  -16.875 2 0  16.25211206745888 1.264109755085799 0  -3.748868614850469 1.292331074664245 0  12.50113138514953 1.292331074664245 0  -4.999425840599162 1.238293400364507 0  11.25057415940084 1.238293400364507 0  10.00021284174179 1.186027320246887 0  -6.249787158258211 1.186027320246887 0  8.750028772491092 1.133996757348608 0  8.125 2 0  -9.375 2 0  -6.875 2 0  9.375 2 0  10.625 2 0  5.625 2 0  -5.625 2 0  -11.875 2 0  11.875 2 0  -4.375 2 0  3.125 2 0  13.125 2 0  -14.375 2 0  14.375 2 0  15.625 2 0  -18.125 2 0  16.875 2 0  -3.125 2 0  -10.625 2 0  4.375 2 0  -13.125 2 0  18.125 2 0  -17.62042339570457 1.322431301452557 0  -17.64048254773117 0.661277151197267 0  -1.59375 0 0  1.59375 0 0  -19.40625 0 0  19.40625 0 0  20 0.5 0  19.0625 1.466926268772181 0  -18.7305243036722 1.362703047674974 0  -5.451064633443578 0.5209722999527524 0  10.79893536655642 0.5209722999527524 0  9.610417111950763 0.5183010867631196 0  -13.46875 0 0  3.96875 0 0  -11.09375 0 0  6.34375 0 0  2.78125 0 0  -8.71875 0 0  -12.28125 0 0  5.15625 0 0  -9.90625 0 0  7.53125 0 0  -15.84375 0 0  -17.03125 0 0  -18.21875 0 0  18.21875 0 0  -14.65625 0 0  20 1.5 0  -19.48071156660626 1.370757229128913 0  -20 0.5 0  -4.24552725411087 0.5169543671041
[...]
<PointData  Scalars="f_2203923"> 
<DataArray  type="Float64"  Name="f_2203923"  format="ascii">1.0004249118297790e+00  1.0006102446706344e+00  1.0010309777106681e+00  1.0037739200417268e+00  1.0042995857676340e+00  1.0090180962927731e+00  1.0160942387238423e+00  1.0242947229694177e+00  1.0356390893374297e+00  1.0495976478374893e+00  1.0581485957884720e+00  1.0750254974025086e+00  1.0959851998976515e+00  1.1147994234250711e+00  1.1375657295004864e+00  1.1619687314031293e+00  1.1885410728347976e+00  1.2160883643927534e+00  1.2452695059313961e+00  1.2766409019409870e+00  1.3094591985815416e+00  1.3470456257603611e+00  1.3838719970515623e+00  1.4218900443523868e+00  1.4616106728844411e+00  1.5020267593900489e+00  1.5424597345396345e+00  1.5813510850251451e+00  1.6249451814157436e+00  1.6675863970204967e+00  1.7094481025415607e+00  1.7533935015517159e+00  1.8141578520772805e+00  1.8616224538465183e+00  1.8906866238423037e+00  1.9268589268452576e+00  1.9541273642903909e+00  1.9868796637754997e+00  2.0494829732705573e+00  2.0790704204462660e+00  2.0834413784830597e+00  2.1252575692207492e+00  2.1451821972801555e+00  2.1384967208090098e+00  2.1632060341181294e+00  2.0249672331899009e+00  2.5168569784467949e+00  2.2240572351699108e+00  2.1723558772904843e+00  2.1350029240885915e+00  2.0856467751776075e+00  2.0468446202914676e+00  2.0169198532965069e+00  1.9609781658338183e+00  1.8961472799884225e+00  1.8049255505084860e+00  1.7315980079753921e+00  1.6642736454998561e+00  1.5776906777552939e+00  1.4615482669946358e+00  1.4379272119836586e+00  1.3512840259064371e+00  1.2563453711661745e+00  1.2014668138090605e+00  1.1019530349508084e+00  1.0107706588851864e+00  9.7317570114477026e-01  8.7958988055743148e-01  8.4634477068253600e-01  7.6736693489501007e-01  6.9711351932572763e-01  6.7357705186089223e-01  6.2786103030983276e-01  5.8818751735025498e-01  5.4403361131698946e-01  5.4323007428630810e-01  5.5481745240613844e-01  5.0795685758744835e-01  1.0149877313228084e+00  4.9230547123803542e-01  5.2630843374450176e-01  5.0628352469937132e-01  5.0532138115892666e-01  5.1374394311710714e-01  5.2252159714074065e-01  5.3130887701693497e-01  5.4736113994910063e-01  5.5775128782955008e-01  5.6637523181274863e-01  5.7407231339092335e-01  5.9388515150305632e-01  6.0800047357416598e-01  6.2243100595529799e-01  6.4212779972664924e-01  6.6423108951316245e-01  6.7878574780333900e-01  6.8910942984069812e-01  7.0114155569774428e-01  7.1760434865809153e-01  7.3187162550792528e-01  7.4315948258478814e-01  7.5742582962516558e-01  7.7479656120256335e-01  7.8964787627943256e-01  8.0634962446985692e-01  8.2006853757650389e-01  8.2871836693046352e-01  8.4134816702411508e-01  8.4873195965668824e-01  8.6381029895943295e-01  8.7655186904603055e-01  8.9145105742387010e-01  9.0050869226029040e-01  9.0863397379854383e-01  9.2275008658933655e-01  9.2292430880339704e-01  9.3444798262675788e-01  9.4166118103117047e-01  9.5275331232560878e-01  9.6057050286858714e-01  9.6493344383409918e-01  9.7146477699314027e-01  9.7802283209451968e-01  9.8337337371904832e-01  9.8647439987177488e-01  9.9006157884690671e-01  9.9356431511209953e-01  9.9576710966911630e-01  9.9845802694402463e-01  9.9654255439636652e-01  9.9878588968778037e-01  1.0000000577603929e+00  9.9999994279632187e-01  9.9692992957704796e-01  1.0000001071075588e+00  9.9999999845420073e-01  1.0000000958091801e+00  9.9998696112792129e-01  9.9999998366536491e-01  9.9999688624807048e-01  1.0000000738356518e+00  9.9993950178402935e-01  9.9953393402392943e-01  9.9999996744251107e-01  1.0000411230867092e+00  1.0003177236498304e+00  1.0000000357087058e+00  9.8633077760751531e-01  9.9999890951104364e-01  1.0129744761652071e+00  1.0000000169579804e+00  1.0000000330006265e+00  9.9989119059715448e-01  1.0000062315024347e+00  9.9999999451585964e-01  1.0000000141248975e+00  1.0000008157442992e+00  9.9999982097594198e-01  1.0000000157840689e+00  1.0000000652955137e+00  9.9999932185649232e-01  1.0000000078839624e+00  1.0000926734778315e+00  9.9975721066736356e-01  1.0000000877221789e+00  1.0000000573585168e+00  1.0000000216416569e+00  9.9998508680544407e-01  1.0000000264159905e+00  1.0000001273379466e+00  1.0000000857153319e+00  9.9999997313769429e-01  9.9999999741774570e-01  1.0000000615251117e+00  9.9999997962289289e-01  9.9999990045239806e-01  1.0000001215383618e+00  1.0000000025937883e+00  1.0000021180739243e+00  9.9999735919487831e-01  9.9999774318632928e-01  1.0000004395575943e+00  1.0000001775271070e+00  9.9999999787761240e-01  1.0000000219303657e+00  9.9996064354771130e-01  9.9869881905457369e-01  1.0010687415178325e+00  9.9987344923559240e-01  1.0011938181708859e+00  9.9484970339210765e-01  1.0000000324766110e+00  9.1836592070890644e-01  1.0921071157420736e+00  1.0007102915710315e+00  1.0000003861872080e+00  1.0000003477395116e+00  1.0000298416419870e+00  1.0000003739344678e+00  1.0000151447340984e+00  1.0000003977242131e+00  1.0000016154464952e+00  1.0000003878828123e+00  1.0000000542278267e+00  1.0877357274617692e+00  9.8194847377354888e-01  9.9364062033195732e-01  9.9999998174545901e-01  1.0000003925315373e+00  1.0117785608381127e+00  9.9937641342781092e-01  1.0000003759411209e+00  1.0000000011101040e+00  1.0013720854997097e+00  9.9997213282252018e-01  1.0000594953461355e+00  9.9999999166567222e-01  1.0000003963934767e+00  1.0000003447289409e+00  1.0000004683920618e+00  1.0000000186702080e+00  1.0000019166090310e+00  1.0000001280500999e+00  1.0000000336612145e+00  1.0000003330675626e+00  9.9975006151205659e-01  9.9999849434802068e-01  1.0000003195686262e+00  1.0000014471459662e+00  1.0000000986445605e+00  1.0000026153484673e+00  9.9999999925414496e-01  1.0002513177856132e+00  1.0000247853421262e+00  1.0000000576686594e+00  1.0040532769084376e+00  1.0000000348166276e+00  9.9999999563097630e-01  1.0000005287936133e+00  1.0000000960814652e+00  1.0002910359391095e+00  9.9999973796837505e-01  9.9999994475906351e-01  1.0366847566010888e+00  1.0000000315342230e+00  9.8996812365418729e-01  1.0153649788921650e+00  1.0000002903720064e+00  1.0000059483468338e+00  9.9148960084074123e-01  9.9692380729334673e-01  9.4597983236172090e-01  1.3495923584441576e+00  1.0000000353537291e+00  1.0000002860884887e+00  9.9999997150618025e-01  1.0000002440179487e+00  1.0014885935991342e+00  9.9999991463629589e-01  9.9999999308840171e-01  1.0000004384219052e+00  1.0000002752376624e+00  1.0000002521811731e+00  1.0000711390168933e+00  1.0000000185837261e+00  1.0000002463756199e+00  9.9999878510517359e-01  1.0000004257373341e+00  9.9999999366575876e-01  1.0000000229128456e+00  9.9793683548050582e-01  9.7177696612119191e-01  1.0006101501411271e+00  1.0571918399786966e+00  9.9848290788856442e-01  9.9999620670760536e-01  1.0000002484525696e+00  1.0005147554723903e+00  1.0000113119247933e+00  9.9999716394989957e-01  9.9999998525454969e-01  1.0000003023008981e+00  1.0000000164300658e+00  1.0000004228894468e+00  1.0000000116733745e+00  1.0000006602265363e+00  9.9999974703283390e-01  1.0000010830146726e+00  1.0000004423480806e+00  9.9712004228785511e-01  1.0000004528910027e+00  9.9984064608911183e-01  1.0000004018001691e+00  1.0000003369807289e+00  9.9999822345197753e-01  1.0000002383291622e+00  1.0000000197319476e+00  1.0000000030537146e+00  1.0000001296635790e+00  1.0000000296310947e+00  1.0000000432767437e+00  9.9999755846163974e-01  1.0000000823428454e+00  9.9999999724020328e-01  1.0000000468144956e+00  1.0000086984957606e+00  1.0004194372546411e+00  1.0000000412014876e+00  9.9999998967140014e-01  1.0000000377802847e+00  1.0000000747517788e+00  9.9999727070607924e-01  1.0000000531507320e+00  1.0000921506588600e+00  9.9999999712101750e-01  9.9996693687450444e-01  9.9999999636159120e-01  1.0000000621983371e+00  1.0000900527347123e+00  9.9996096479213148e-01  1.1831092320794394e+00  8.6294876193961101e-01  1.0001971814456529e+00  1.0000000747378659e+00  1.0000002508733721e+00  1.0000004358548615e+00  1.0002452778681685e+00  1.0000177701690207e+00  1.0000002610995005e+00  1.0000002911042929e+00  1.0000000217427256e+00  9.9545100330041181e-01  9.9999998435024928e-01  9.9999450032139048e-01  9.6318344344633089e-01  9.9999973429973166e-01  9.9999999340172130e-01  9.9968724547379118e-01  9.9999996360681753e-01  1.0000017532417651e+00  9.9999568829766428e-01  9.9995662984658296e-01  9.9979051575198497e-01  1.0000000246474026e+00  9.9999976885516595e-01  1.0000004360597770e+00  9.9954363908484078e-01  1.0007383174985234e+00  1.0007602737895598e+00  1.0000002566712967e+00  9.9999999434095677e-01  9.9977476218979644e-01  1.0000004025908362e+00  1.0000002704307605e+00  1.0000002623048609e+00  1.0000002630298361e+00  1.0101966083101581e+00  9.8791385603641413e-01  1.1232715153997725e+00  9.1168924949605012e-01  1.0000002258133474e+00  9.9999887592445824e-01  9.9999997114187877e-01  1.0000002551220675e+00  1.0086943860283439e+00  1.7286058920350975e+00  1.2144482402614414e+00  1.0000000006090659e+00  9.9999999518227389e-01  1.0000749999401584e+00  9.9997980384463714e-01  1.0000010152457575e+00  1.0000015686910515e+00  9.9999709138724713e-01  1.0000000027996367e+00  9.9999997971618948e-01  1.0000000467544707e+00  1.0000005538550154e+00  1.0000000203610462e+00  9.9999996733283103e-01  9.9874388331306030e-01  1.0028051669385676e+00  1.0000000013993438e+00  1.0000000003392808e+00  1.0000000493296946e+00  1.0000031742807534e+00  1.0000000204330410e+00  1.0000003600434295e+00  1.0000035276209094e+00  9.9999491466542512e-01  9.9999968505375669e-01  1.0000001695328358e+00  1.0000004091728580e+00  9.9999683402551265e-01  1.0000404244518168e+00  1.0000004665027158e+00  1.0000003909202115e+00  1.0000033724959192e+00  1.0000019070978652e+00  1.0000004434455230e+00  1.0000000081065108e+00  1.0002485779632706e+00  9.2428814899141032e-01  1.2213532523922443e+00  9.3777008631754122e-01  9.9999848859367635e-01  1.0600048758295895e+00  1.0006599659937641e+00  1.0000002323521775e+00  1.0000000577284331e+00  1.0000004666548539e+00  9.9997281179167052e-01  1.0000007728949218e+00  9.9976842233064489e-01  1.0000004768216673e+00  1.0000004907574851e+00  1.0000109947986660e+00  9.9985316714202321e-01  1.0000004883173830e+00  1.0000004633992325e+00  9.9997906917652402e-01  1.0252850727615390e+00  9.8631525813165666e-01  9.9999999474679691e-01  1.0000002746574459e+00  1.0002414538529265e+00  1.0000004024442850e+00  1.0000004211478801e+00  9.9899857063765474e-01  9.9573128983693737e-01  1.0000005069050704e+00  1.0046995401200289e+00  9.9999952044992024e-01  1.0000004259753439e+00  9.9999998549318636e-01  1.0000005224821062e+00  1.0000004727893630e+00  9.9999742522488821e-01  9.9999999458036137e-01  1.0000008124398201e+00  1.0006399895397993e+00  1.0000000569190766e+00  9.4706966891469357e-01  1.1190237474999376e+00  9.4352985673810752e-01  1.4443001423716511e+00  1.0000002229150173e+00  1.0001980183968904e+00  1.0000002639258299e+00  9.9978851290037529e-01  1.0000000015234662e+00  1.0000005566176573e+00  1.0000004011205847e+00  9.9993792853662167e-01  9.9991224591132666e-01  1.0476158757941108e+00  1.4874114055850227e+00  1.0000003239594082e+00  1.0000002708977747e+00  9.9994363400497621e-01  1.0000003407303222e+00  1.0000126811242780e+00  9.9999977250422045e-01  9.9915591064598719e-01  1.0000003381224782e+00  9.9999999460594780e-01  1.0000028400454737e+00  9.9992521834295822e-01  1.0012641960695381e+00  1.0000004805703171e+00  1.0000005300501889e+00  9.9999997192454970e-01  9.9999999221299551e-01  9.9999997889113257e-01  9.9999999934875039e-01  1.0000166772923329e+00  1.0000000044661073e+00  1.0006507782914185e+00  1.0005665282431477e+00  9.9930447994247107e-01  9.9929397827119293e-01  1.0000003536439359e+00  1.0106116871636428e+00  9.9999998296296577e-01  1.0000000179019042e+00  9.9990551975904129e-01  1.0000000612441728e+00  9.9999906222000090e-01  9.9999872120808153e-01  1.0000003284355177e+00  1.0000001683870998e+00  1.0000002057822426e+00  1.0000004334748405e+00  9.5960791161582881e-01  9.9999999227868464e-01  1.0000000023723024e+00  9.9999790382257991e-01  1.0000003385695526e+00  1.0000003690449655e+00  9.9998424487515725e-01  1.0000000005933327e+00  1.0000015883854365e+00  9.9042197371496210e-01  1.0210878824239316e+00  9.4325329120177648e-01  9.6881564583108548e-01  1.0132445865882669e+00  1.0000000308620718e+00  1.0278209673265453e+00  1.0541389065191837e+00  9.9050241506129810e-01  1.1041671145563510e+00  9.9999992334298871e-01  1.0000018857338471e+00  9.9982753729283247e-01  9.9999777642786802e-01  1.0000004815226184e+00  1.0000027281839019e+00  1.0570657350642014e+00  9.7114163222949512e-01  1.0000003087492331e+00  9.9999999691727204e-01  1.0000003759881120e+00  1.0000002416256375e+00  1.0000002549166214e+00  1.0000220680718084e+00  1.2084697545635059e+00  9.9999999921233651e-01  9.9999992862460574e-01  1.0000000020224924e+00  9.9999994217317978e-01  9.9999998766336740e-01  1.0004107159995987e+00  1.0000000888454561e+00  1.0007253724382874e+00  1.0000082089182762e+00  9.9993230030555158e-01  1.0000003772028958e+00  1.0000002076453760e+00  1.0000002234380880e+00  1.0000003263853063e+00  9.9620919013035636e-01  9.9989087808200616e-01  9.9802667610595952e-01  1.0000005050464840e+00  1.0000058923011261e+00  9.9997535472522081e-01  1.0000228937477569e+00  1.0001438094767083e+00  1.0026092875574777e+00  1.0000002480199692e+00  1.0000002382672375e+00  1.0072994724824551e+00  1.0008901487873652e+00  1.0000003029830560e+00  1.0000002267398187e+00  9.9999999645155924e-01  1.0000058137253056e+00  1.0000049040035386e+00  9.9999938861310889e-01  9.9998348375995771e-01  1.0000277522939329e+00  1.0000464800044635e+00  9.9999998964701131e-01  9.9999999539864781e-01  9.9999999592798861e-01  1.1375999957861784e+00  1.1321728310752388e+00  1.0000004958274034e+00  9.9984412521379307e-01  9.9988015385671991e-01  1.0001292810729150e+00  1.0000689570590391e+00  1.0000004554001272e+00  9.9985930490790820e-01  9.9648773771493293e-01  1.0000039940300083e+00  1.0006742741724373e+00  9.9137762237395410e-01  1.0000000109121221e+00  1.0000003805941879e+00  1.0000003799348123e+00  1.0000002140816817e+00  1.0000002536687711e+00  1.0000011090442773e+00  1.0000002744390639e+00  1.0004927762763141e+00  9.9999999400185846e-01  1.0000003115183278e+00  9.9995716141138313e-01  1.0000002497735845e+00  1.0000000479827338e+00  1.0005488695003251e+00  1.0005348556687477e+00  1.0001343033379027e+00  1.0000002745963967e+00  9.9999177955558249e-01  9.9999049404673179e-01  1.0000003737165057e+00  9.9973000781549681e-01  1.0000000147819577e+00  1.0000000212438247e+00  1.0000005069497522e+00  9.9999999537750295e-01  1.0001551580037273e+00  1.0000002403176720e+00  9.9975796441968556e-01  9.9997400266299741e-01  1.0000000275226124e+00  1.0000101631554135e+00  9.9999999821118224e-01  9.9999999467953116e-01  9.9999998494699804e-01  1.0000000696557503e+00  1.0000003641019402e+00  1.0000004984649096e+00  1.0000002102214645e+00  1.0000005123602407e+00  1.0000000898191954e+00  1.0000022817517487e+00  9.9994982263053056e-01  1.0000005047224556e+00  1.0000004429296800e+00  1.0000000146316210e+00  1.0000003087659466e+00  1.0757244351518240e+00  9.9999998431577308e-01  1.0000004377827982e+00  1.0000004112733212e+00  1.0000004889457346e+00  1.0000004361638994e+00  1.0000002786698228e+00  1.0000003564302558e+00  9.9998785408956214e-01  9.9998956353855051e-01  1.0000002421183831e+00  1.0000000694771662e+00  1.0000148247548251e+00  1.0000141852092608e+00  1.0000003066534566e+00  9.9999865060955284e-01  1.0000008550746151e+00  1.0000003424024717e+00  1.0000004124812989e+00  1.0000003133195792e+00  9.9999999143326790e-01  1.0000000156499396e+00  1.0000003222734377e+00  1.0000002581460365e+00  9.9703831726750147e-01  1.0000000409258833e+00  1.0070583675152653e+00  1.0000000193462859e+00  1.4578497537181148e+00  1.0000011555027488e+00  9.9999947238400722e-01  9.9999999294324893e-01  9.9163601365144616e-01  1.0000004656265029e+00  1.0000003477613246e+00  1.1796785478632805e+00  8.7064327958436194e-01  1.0000004168610928e+00  1.0000004103625595e+00  9.9993621151596501e-01  9.9864322409817508e-01  1.0000004534708509e+00  1.0000002948701148e+00  1.0000003255039347e+00  1.0000003432207494e+00  1.0520541449612784e+00  1.0001387846552854e+00  1.0001624633760313e+00  1.5052150689787578e+00  9.8828452769718855e-01  1.0006263073315154e+00  9.9999956461204975e-01  8.8824843018302413e-01  8.8258073485757549e-01  1.0000000050387734e+00  9.9999998960972536e-01  1.0204870429208808e+00  1.6300999723352916e+00  1.0000000728305618e+00  9.9999448997324125e-01  1.0000000030365315e+00  9.9999990558551666e-01  9.9999997649740713e-01  9.9995413298978542e-01  1.0000003921575809e+00  1.3593549465542252e+00  9.2401891685876292e-01  1.0122157169792212e+00  1.0000002995872561e+00  1.0252997978402596e+00  9.9999999660912187e-01  9.9999987510602784e-01  1.0000003180971802e+00  1.0000002276155011e+00  1.0000004220504710e+00  9.9999997580386379e-01  9.9999893886554925e-01  9.9999897856594844e-01  1.0000000358491410e+00  1.0000004199514263e+00  1.0000027158067846e+00  9.9999943174295747e-01  9.9802039729922087e-01  9.9185892975478041e-01  1.0003094514091457e+00  9.9999996928382406e-01  1.0000000822120747e+00  1.0000000750503895e+00  1.0000181537954591e+00  1.0000001068913802e+00  1.0003464558572503e+00  1.0001513106421245e+00  1.0000001373348117e+00  1.0000000921121412e+00  9.9999814532137232e-01  1.0000001667245795e+00  1.0000001380635888e+00  1.0033077467851266e+00  9.9858040167084849e-01  1.0000000011606975e+00  9.9999988656832128e-01  9.9999999617035507e-01  1.0000000087081666e+00  1.0000000450261533e+00  1.0000000924619417e+00  9.9999999449629906e-01  9.9999999215337254e-01  9.9999998690176972e-01  1.0000000223153680e+00  9.9999999785384608e-01  1.0000000031366543e+00  1.0000000003150822e+00  1.0000377339608475e+00  9.9999888819931082e-01  9.9999670639804061e-01  9.9999999938693462e-01  9.9999999691672159e-01  1.0000000032374312e+00  9.9987081161974856e-01  9.9999998956337421e-01  1.0000000710771704e+00  1.0000001149135371e+00  9.9215339672256209e-01  1.0000003842449188e+00  1.0000000732634573e+00  1.0003278944423764e+00  1.0010412015171093e+00  1.0000000784214489e+00  9.9999891785794359e-01  1.0000000787476699e+00  1.0000000107070102e+00  9.8254051033094514e-01  9.4649895342162937e-01  1.0001831586548262e+00  1.0222146497132101e+00  9.9998098624086773e-01  1.0000003795472658e+00  1.0000004529954629e+00  1.0000004422732667e+00  1.0000021314905638e+00  1.0004051006400632e+00  9.9954740365020434e-01  1.0000004481261859e+00  9.9999845482287508e-01  1.0000002460772839e+00  1.0000000139566565e+00  8.5116830912271768e-01  1.0000000716856710e+00  1.0000004579947048e+00  1.1843740661468636e+00  1.1786895608533454e+00  1.0000002982637688e+00  1.1359636048322344e+00  1.0000000349125853e+00  1.0021680360922478e+00  9.9999781240256869e-01  1.0000000035876233e+00  9.9999996801340418e-01  1.0000402058646212e+00  1.0000004499544151e+00  1.0286164515837517e+00  1.0000002938631269e+00  9.9999991710743519e-01  9.9999932003588043e-01  1.0000000430003402e+00  1.0001093149103035e+00  1.0592724487574294e+00  1.0000021865971789e+00  1.0000000924169059e+00  1.0000000292307525e+00  9.9999985023719384e-01  1.0000004714723498e+00  1.0000003544904139e+00  9.9999947121572974e-01  9.9974968562611577e-01  1.0000000515153196e+00  9.4374088709985060e-01  9.9992907241238427e-01  9.9987552928116596e-01  1.0000000726078877e+00  9.9999795587532381e-01  1.0000004982691870e+00  9.9999998347637808e-01  9.9753746415896438e-01  1.0000000185474589e+00  1.0000000207859785e+00  9.9999781070966109e-01  1.0000000043243111e+00  9.7734121283281572e-01  9.9999999481935398e-01  9.9999998368440490e-01  1.0000000170076659e+00  9.9999958069644612e-01  9.9999984180022872e-01  9.9997806207508699e-01  9.9195754186473173e-01  1.0000012587403264e+00  1.0000000085984024e+00  1.0147597466601692e+00  9.9999999369592940e-01  1.0003373879267026e+00  1.0407233224307260e+00  9.9999107656887742e-01  9.8322631516578818e-01  9.8388023