<?xml version="1.0"?>
<VTKFile type="UnstructuredGrid"  version="0.1"  >
<UnstructuredGrid>
<Piece  NumberOfPoints="6869" NumberOfCells="12420">
<Points>
<DataArray  type="Float64"  NumberOfComponents="3"  format="ascii">2 0 0  1.999397637392408 0.04908245704582458 0  1.997590912410345 0.09813534865483603 0  1.99458091335738 0.1471291271993349 0  1.990369453344394 0.1960342806591212 0  1.98495906919742 0.2448213503984324 0  1.978353019929562 0.2934609489107235 0  1.970555284777882 0.3419237775206024 0  1.961570560806461 0.3901806440322565 0  1.951404260077057 0.4382024803137396 0  1.940062506389088 0.4859603598065277 0  1.92755213159088 0.5334255149497967 0  1.913880671464418 0.5805693545089247 0  1.899056361186073 0.627363480797783 0  1.883088130366042 0.6737797067844401 0  1.865985597669478 0.7197900730699762 0  1.847759065022573 0.7653668647301796 0  1.828419511407061 0.8104826280099797 0  1.807978586246887 0.8551101868605642 0  1.786448602391031 0.8992226593092131 0  1.76384252869671 0.9427934736519953 0  1.740173982217423 0.9857963844595681 0  1.715457220000544 1.028205488386443 0  1.689707130499414 1.069995239774194 0  1.66293922460509 1.111140466039204 0  1.635169626303167 1.151616382835691 0  1.60641506296129 1.191398608984867 0  1.576692855253213 1.230463181161254 0  1.546020906725474 1.268786568327291 0  1.514417693012969 1.306345685907554 0  1.481902250709918 1.343117909694037 0  1.448494165902934 1.379081089474134 0  1.414213562373095 1.414213562373095 0  1.379081089474134 1.448494165902934 0  1.343117909694037 1.481902250709918 0  1.306345685907554 1.514417693012969 0  1.268786568327291 1.546020906725474 0  1.230463181161254 1.576692855253212 0  1.191398608984867 1.60641506296129 0  1.151616382835691 1.635169626303167 0  1.111140466039205 1.66293922460509 0  1.069995239774195 1.689707130499414 0  1.028205488386443 1.715457220000544 0  0.9857963844595682 1.740173982217423 0  0.9427934736519956 1.76384252869671 0  0.8992226593092132 1.786448602391031 0  0.8551101868605644 1.807978586246887 0  0.8104826280099797 1.828419511407061 0  0.7653668647301797 1.847759065022573 0  0.7197900730699766 1.865985597669478 0  0.6737797067844401 1.883088130366042 0  0.6273634807977831 1.899056361186073 0  0.5805693545089247 1.913880671464418 0  0.5334255149497968 1.92755213159088 0  0.485960359806528 1.940062506389088 0  0.4382024803137395 1.951404260077057 0  0.3901806440322567 1.961570560806461 0  0.3419237775206027 1.970555284777882 0  0.2934609489107235 1.978353019929562 0  0.2448213503984326 1.98495906919742 0  0.1960342806591215 1.990369453344394 0  0.1471291271993349 1.99458091335738 0  0.09813534865483625 1.997590912410345 0  0.04908245704582453 1.999397637392408 0  1.224646799147353e-16 2 0  -0.04908245704582428 1.999397637392408 0  -0.09813534865483602 1.997590912410345 0  -0.1471291271993347 1.99458091335738 0  -0.1960342806591213 1.990369453344394 0  -0.2448213503984323 1.98495906919742 0  -0.2934609489107233 1.978353019929562 0  -0.3419237775206025 1.970555284777882 0  -0.3901806440322564 1.961570560806461 0  -0.4382024803137393 1.951404260077057 0  -0.4859603598065277 1.940062506389088 0  -0.5334255149497966 1.92755213159088 0  -0.5805693545089243 1.913880671464418 0  -0.6273634807977828 1.899056361186073 0  -0.6737797067844399 1.883088130366042 0  -0.7197900730699763 1.865985597669478 0  -0.7653668647301795 1.847759065022573 0  -0.8104826280099795 1.828419511407061 0  -0.8551101868605637 1.807978586246887 0  -0.8992226593092134 1.78644860239103 0  -0.9427934736519954 1.76384252869671 0  -0.985796384459568 1.740173982217423 0  -1.028205488386443 1.715457220000544 0  -1.069995239774194 1.689707130499414 0  -1.111140466039204 1.662939224605091 0  -1.151616382835691 1.635169626303167 0  -1.191398608984867 1.60641506296129 0  -1.230463181161253 1.576692855253213 0  -1.268786568327291 1.546020906725474 0  -1.306345685907553 1.514417693012969 0  -1.343117909694037 1.481902250709918 0  -1.379081089474134 1.448494165902934 0  -1.414213562373095 1.414213562373095 0  -1.448494165902934 1.379081089474134 0  -1.481902250709918 1.343117909694037 0  -1.514417693012969 1.306345685907553 0  -1.546020906725474 1.268786568327291 0  -1.576692855253212 1.230463181161254 0  -1.60641506296129 1.191398608984867 0  -1.635169626303167 1.151616382835691 0  -1.662939224605091 1.111140466039204 0  -1.689707130499414 1.069995239774194 0  -1.715457220000544 1.028205488386444 0  -1.740173982217423 0.9857963844595683 0  -1.76384252869671 0.9427934736519957 0  -1.78644860239103 0.8992226593092137 0  -1.807978586246887 0.8551101868605641 0  -1.828419511407061 0.8104826280099798 0  -1.847759065022573 0.7653668647301798 0  -1.865985597669478 0.7197900730699767 0  -1.883088130366041 0.6737797067844407 0  -1.899056361186073 0.6273634807977828 0  -1.913880671464418 0.5805693545089248 0  -1.92755213159088 0.533425514949797 0  -1.940062506389088 0.4859603598065281 0  -1.951404260077057 0.4382024803137401 0  -1.961570560806461 0.3901806440322572 0  -1.970555284777882 0.3419237775206024 0  -1.978353019929562 0.2934609489107236 0  -1.98495906919742 0.2448213503984327 0  -1.990369453344394 0.1960342806591217 0  -1.99458091335738 0.1471291271993355 0  -1.997590912410345 0.09813534865483593 0  -1.999397637392408 0.04908245704582465 0  -2 2.449293598294706e-16 0  -1.999397637392408 -0.04908245704582416 0  -1.997590912410345 -0.09813534865483545 0  -1.99458091335738 -0.147129127199335 0  -1.990369453344394 -0.1960342806591212 0  -1.98495906919742 -0.2448213503984322 0  -1.978353019929562 -0.2934609489107232 0  -1.970555284777883 -0.3419237775206019 0  -1.961570560806461 -0.3901806440322567 0  -1.951404260077057 -0.4382024803137396 0  -1.940062506389088 -0.4859603598065276 0  -1.92755213159088 -0.5334255149497965 0  -1.913880671464418 -0.5805693545089242 0  -1.899056361186074 -0.6273634807977824 0  -1.883088130366042 -0.6737797067844402 0  -1.865985597669478 -0.7197900730699762 0  -1.847759065022574 -0.7653668647301793 0  -1.828419511407061 -0.8104826280099794 0  -1.807978586246887 -0.8551101868605636 0  -1.786448602391031 -0.8992226593092133 0  -1.76384252869671 -0.9427934736519953 0  -1.740173982217423 -0.9857963844595679 0  -1.715457220000544 -1.028205488386443 0  -1.689707130499414 -1.069995239774194 0  -1.662939224605091 -1.111140466039204 0  -1.635169626303167 -1.151616382835691 0  -1.60641506296129 -1.191398608984866 0  -1.576692855253213 -1.230463181161253 0  -1.546020906725474 -1.268786568327291 0  -1.51441769301297 -1.306345685907553 0  -1.481902250709918 -1.343117909694037 0  -1.448494165902934 -1.379081089474134 0  -1.414213562373095 -1.414213562373095 0  -1.379081089474134 -1.448494165902934 0  -1.343117909694037 -1.481902250709918 0  -1.306345685907554 -1.514417693012968 0  -1.268786568327292 -1.546020906725473 0  -1.230463181161255 -1.576692855253212 0  -1.191398608984866 -1.60641506296129 0  -1.15161638283569 -1.635169626303168 0  -1.111140466039204 -1.66293922460509 0  -1.069995239774195 -1.689707130499414 0  -1.028205488386444 -1.715457220000544 0  -0.9857963844595684 -1.740173982217423 0  -0.9427934736519957 -1.76384252869671 0  -0.8992226593092139 -1.78644860239103 0  -0.8551101868605649 -1.807978586246886 0  -0.8104826280099807 -1.828419511407061 0  -0.7653668647301807 -1.847759065022573 0  -0.7197900730699759 -1.865985597669478 0  -0.6737797067844399 -1.883088130366042 0  -0.6273634807977829 -1.899056361186073 0  -0.5805693545089249 -1.913880671464418 0  -0.5334255149497971 -1.92755213159088 0  -0.4859603598065282 -1.940062506389088 0  -0.4382024803137402 -1.951404260077057 0  -0.3901806440322573 -1.961570560806461 0  -0.3419237775206034 -1.970555284777882 0  -0.2934609489107246 -1.978353019929562 0  -0.2448213503984319 -1.98495906919742 0  -0.1960342806591209 -1.990369453344394 0  -0.1471291271993347 -1.99458091335738 0  -0.09813534865483606 -1.997590912410345 0  -0.04908245704582478 -1.999397637392408 0  -3.673940397442059e-16 -2 0  0.04908245704582404 -1.999397637392408 0  0.09813534865483532 -1.997590912410345 0  0.147129127199334 -1.99458091335738 0  0.1960342806591202 -1.990369453344394 0  0.2448213503984312 -1.98495906919742 0  0.2934609489107239 -1.978353019929562 0  0.3419237775206027 -1.970555284777882 0  0.3901806440322566 -1.961570560806461 0  0.4382024803137395 -1.951404260077057 0  0.4859603598065275 -1.940062506389088 0  0.5334255149497964 -1.92755213159088 0  0.5805693545089241 -1.913880671464418 0  0.6273634807977823 -1.899056361186074 0  0.6737797067844392 -1.883088130366042 0  0.7197900730699752 -1.865985597669478 0  0.76536686473018 -1.847759065022573 0  0.8104826280099801 -1.828419511407061 0  0.8551101868605643 -1.807978586246887 0  0.8992226593092132 -1.786448602391031 0  0.9427934736519952 -1.76384252869671 0  0.9857963844595677 -1.740173982217423 0  1.028205488386443 -1.715457220000544 0  1.069995239774194 -1.689707130499414 0  1.111140466039204 -1.662939224605091 0  1.15161638283569 -1.635169626303168 0  1.191398608984866 -1.606415062961291 0  1.230463181161254 -1.576692855253212 0  1.268786568327291 -1.546020906725474 0  1.306345685907554 -1.514417693012969 0  1.343117909694037 -1.481902250709918 0  1.379081089474134 -1.448494165902934 0  1.414213562373095 -1.414213562373095 0  1.448494165902933 -1.379081089474134 0  1.481902250709918 -1.343117909694037 0  1.514417693012968 -1.306345685907554 0  1.546020906725473 -1.268786568327292 0  1.576692855253212 -1.230463181161255 0  1.60641506296129 -1.191398608984866 0  1.635169626303167 -1.15161638283569 0  1.66293922460509 -1.111140466039204 0  1.689707130499414 -1.069995239774195 0  1.715457220000544 -1.028205488386444 0  1.740173982217423 -0.9857963844595685 0  1.76384252869671 -0.9427934736519958 0  1.78644860239103 -0.899222659309214 0  1.807978586246886 -0.8551101868605651 0  1.828419511407061 -0.8104826280099808 0  1.847759065022573 -0.7653668647301808 0  1.865985597669478 -0.719790073069976 0  1.883088130366042 -0.67377970678444 0  1.899056361186073 -
[...]
<PointData  Scalars="f_2885360"> 
<DataArray  type="Float64"  Name="f_2885360"  format="ascii">-7.2263430246698906e-04  3.0715876946823054e-02  6.8140563282007946e-02  9.6652564107172600e-02  1.3767742873331812e-01  1.6435587898652596e-01  2.0330988126326430e-01  2.3034538906385499e-01  2.6875188772923858e-01  2.9863595023407374e-01  3.2661486208768198e-01  3.6500260961479147e-01  3.9125493621465263e-01  4.2298091749144273e-01  4.4755625562352763e-01  4.7714589052985418e-01  5.1258779255936404e-01  5.3153832473094098e-01  5.6796764838549074e-01  5.9222838023543434e-01  6.0735470433992511e-01  6.3771747020486280e-01  6.5832648087798440e-01  6.7998734383006210e-01  7.0533697948101126e-01  7.2284638534064949e-01  7.4528637300883682e-01  7.6187724174370275e-01  7.7791706532196392e-01  7.9231364737717447e-01  8.0774705343212660e-01  8.1946158419214421e-01  8.2588972824194185e-01  8.2872134389670860e-01  8.4132497234691361e-01  8.4732933234541030e-01  8.5116923532645894e-01  8.5043375546836475e-01  8.4924815590154201e-01  8.4828377588215220e-01  8.4474467506249828e-01  8.3294513060940789e-01  8.2038173587868124e-01  8.1594697485052048e-01  7.9904484249589436e-01  7.8734953995429036e-01  7.6134986017158279e-01  7.4242736342453253e-01  7.1224613378082591e-01  6.9379413357626318e-01  6.6547822684548963e-01  6.2674513908078966e-01  5.9921904495543543e-01  5.5848803931992075e-01  5.1520226185443907e-01  4.6885399470188649e-01  4.2792277766471803e-01  3.6716547731286864e-01  3.3112074315330253e-01  2.7303435699972489e-01  2.3066297396509569e-01  1.6966609302569347e-01  1.0021651426387662e-01  5.8841940031168063e-02  -2.7111140292012921e-04  -7.8732241776567166e-02  -1.2269696827169783e-01  -2.1168753443777857e-01  -2.6237502822920628e-01  -3.4700773409829977e-01  -4.0612732563962639e-01  -4.9027353644013211e-01  -5.3655720710391697e-01  -6.1253382911216769e-01  -7.0948557558492742e-01  -7.2272526897863187e-01  -8.3185765483941154e-01  -8.7911292709725519e-01  -9.9182324398753918e-01  -1.0955189415045758e+00  -1.1348550591868771e+00  -1.1995803309013939e+00  -1.3001131810119622e+00  -1.3245262335376369e+00  -1.3702312384396840e+00  -1.4701676173879001e+00  -1.5024135361733189e+00  -1.5379969439412648e+00  -1.4371756292429523e+00  -1.5033737314222331e+00  -1.5050030476230938e+00  -1.5371195387453158e+00  -1.5301252262290896e+00  -1.4847155411290407e+00  -1.2775306590206459e+00  -1.1141081551794785e+00  -1.1849972035411924e+00  -9.3574731440052383e-01  -7.9220680681192013e-01  -6.1730584527126486e-01  -5.4893906055425967e-01  -2.0795686042837647e-01  8.5880253402668430e-02  5.7449542448639679e-01  1.0818322985977153e+00  1.3359560749819508e+00  1.7651231957382507e+00  2.5749515403572092e+00  3.3708671710294973e+00  4.5535463339348219e+00  5.5635274942332726e+00  6.4078734631732983e+00  7.1894830558615723e+00  7.9023603101462125e+00  8.6347664760564236e+00  9.3124843220849307e+00  9.9321215511452916e+00  1.0408014467399580e+01  1.0612103246171065e+01  1.0761276117222378e+01  1.0803009169843014e+01  1.0369106390131588e+01  9.8925018384765817e+00  8.9753153362093734e+00  8.0365304709371568e+00  7.2473696106581205e+00  5.6891095656913038e+00  4.1291166234419343e+00  2.4215781691071596e+00  5.6237323862480482e-01  -1.0266618420306732e+00  -2.7725538493906918e+00  -3.9918124778369815e+00  -5.3618843013130384e+00  -6.6106719565356880e+00  -7.4248608479638003e+00  -7.9262031380007514e+00  -8.2803650389076822e+00  -8.4974613093126585e+00  -8.3308915325819619e+00  -8.1263210560083738e+00  -7.7352802621466070e+00  -7.0766971822460381e+00  -6.3621939267856940e+00  -5.6863148744067287e+00  -4.7669900404967889e+00  -3.9981415803143405e+00  -3.3720896900741462e+00  -2.6266789925221898e+00  -1.9320974097441348e+00  -1.4579492724428629e+00  -9.9734045379464820e-01  -4.4808808589530474e-01  -2.0023001573403454e-01  1.2880054024889417e-01  6.0521811727450647e-01  5.7632760547851469e-01  7.6715854536789407e-01  9.8353001861256995e-01  1.0518203730872018e+00  1.1157285393310903e+00  1.2151494092561876e+00  1.3000275471242966e+00  1.3013685821475767e+00  1.3241431718259786e+00  1.4014500182364795e+00  1.3361047186213220e+00  1.3184658011248207e+00  1.3309765272998564e+00  1.3190518780566982e+00  1.2734468107216839e+00  1.2725817646018205e+00  1.2287288150750488e+00  1.1740687559214111e+00  1.0837026543876767e+00  1.0270876385693750e+00  9.7230364431909388e-01  9.1973146564525587e-01  8.5623387738148804e-01  7.7081023854629616e-01  6.7961155340137436e-01  6.1424152337086446e-01  5.4096142574067729e-01  5.1765985652191526e-01  4.3263671224007877e-01  3.7419862826201994e-01  3.1268152504874325e-01  2.7524938783093511e-01  2.1274941707674205e-01  1.5011963306538101e-01  8.3011055677455550e-02  2.0326062879396426e-02  -2.8645023813452068e-02  -8.3307672080991518e-02  -1.3823412157821172e-01  -1.9037082733520738e-01  -2.4977402031947851e-01  -2.9635767916014821e-01  -3.3888100600940724e-01  -3.9210803581242015e-01  -4.4258487683052650e-01  -4.8000478238598099e-01  -5.3096501287136078e-01  -5.6805822889981528e-01  -6.0801403232345252e-01  -6.4235457557444398e-01  -6.8106735205283964e-01  -7.1197206417246550e-01  -7.3645935617890135e-01  -7.5855175911838424e-01  -7.8277892257244219e-01  -7.9931545513236846e-01  -8.2403741710386846e-01  -8.3545132592447935e-01  -8.4719120956970695e-01  -8.6027125971882834e-01  -8.6561450067211443e-01  -8.7019248772894453e-01  -8.7648989388742538e-01  -8.7231155744191080e-01  -8.7153259221913748e-01  -8.6698384165469389e-01  -8.5911204973289412e-01  -8.5429112856976386e-01  -8.4601286918949781e-01  -8.3566304783293333e-01  -8.2257842005949666e-01  -8.0923020391698275e-01  -7.8882460387874331e-01  -7.7573292709471886e-01  -7.5853342227314202e-01  -7.3592313555449995e-01  -7.1797572903202722e-01  -6.9549705835816766e-01  -6.6822685674185023e-01  -6.4661158695977783e-01  -6.1805627767743743e-01  -5.9210784837536490e-01  -5.6971212964037143e-01  -5.4346006584111239e-01  -5.1041959573687246e-01  -4.8664899459752753e-01  -4.5727970962994774e-01  -4.2691275998087308e-01  -3.9306051287174276e-01  -3.6297278967945495e-01  -3.3201269738272149e-01  -2.9731274048462075e-01  -2.6370184002918079e-01  -2.3533146865692334e-01  -2.0169871684848067e-01  -1.7192607135547860e-01  -1.3454553569628319e-01  -1.0245686775576274e-01  -6.5457969023832885e-02  -3.1700786003191261e-02  -1.8264739594727525e-01  1.4808286416997041e-01  3.7809013144032544e-01  5.3622742862639339e-01  1.0815571204579495e+00  1.4653478138635105e+00  1.5216033603599235e+00  1.7877199671771131e+00  2.4077339099738926e+00  3.0648621209875850e+00  3.3571284958164052e+00  3.6878169469273971e+00  3.9424761444342193e+00  4.1200152193991526e+00  4.2895470002954212e+00  4.0854049001502872e+00  4.5124981599485254e+00  4.7690978913580349e+00  5.1931813102576712e+00  5.4595825247219878e+00  5.6097908849805309e+00  5.7608642115852167e+00  5.8653956917174641e+00  5.9977574078712363e+00  6.1714684222719276e+00  6.2133935491938841e+00  6.3938395528050238e+00  6.4530187545562212e+00  6.5385115515602354e+00  6.6007973116722241e+00  6.6383187607957561e+00  6.7736273683962622e+00  6.7894356030379157e+00  6.8554803024213262e+00  6.8838671878646469e+00  6.8669919434265747e+00  6.8277318619178864e+00  6.8168923280673797e+00  6.7613944017376086e+00  6.5665805515698406e+00  6.3946464639197602e+00  6.2614733709694743e+00  6.1382216847400537e+00  5.9747315625898514e+00  5.8292765396847521e+00  5.7057369326478273e+00  5.5521854528489039e+00  5.1275832286592493e+00  4.8943686200830561e+00  4.6445554999028635e+00  4.2859640340886918e+00  3.8475372891962429e+00  3.3054678347333146e+00  2.9282245055885281e+00  2.6470833736497879e+00  2.3687184287087053e+00  1.5782400763562106e+00  1.1028685667846228e+00  7.6508727619767236e-01  4.6111022858022721e-01  3.5199073245515011e-01  -4.7221550319108890e-01  -1.2304892754823304e+00  -1.8075732028070222e+00  -2.4969249955972099e+00  -2.6603488253496246e+00  -3.3635650352413582e+00  -3.8347151465061238e+00  -3.9739806472063126e+00  -4.6030650421107797e+00  -5.0762669200574848e+00  -6.3037561849363417e+00  -7.3316561160922813e+00  -8.0865910494847757e+00  -8.7168123172184657e+00  -9.1784447872734649e+00  -9.6980032792534558e+00  -9.9635378471881175e+00  -1.0330103615202859e+01  -1.0530414780341525e+01  -1.0915039311399063e+01  -1.1085943067172261e+01  -1.1325702744240699e+01  -1.1846831658081632e+01  -1.2406394747607676e+01  -1.3136518785081480e+01  -1.3564306631244158e+01  -1.3582093902705251e+01  -1.3447264787305977e+01  -1.3286815387498862e+01  -1.3157366915440278e+01  -1.3093904816882951e+01  -1.2989139283534735e+01  -1.2892263180868667e+01  -1.2956729714001391e+01  -1.2900182534193750e+01  -1.2692764057708381e+01  -1.2536772156807135e+01  -1.2402015077803195e+01  -1.2202113861868973e+01  -1.1979060819758086e+01  -1.1835157206307404e+01  -1.1731066779250078e+01  -1.1591969195716420e+01  -1.1473162952876747e+01  -1.1425255272268258e+01  -1.1455080896909436e+01  -1.1476246576654940e+01  -1.1516759319850665e+01  -1.1493973190294444e+01  -1.1636114192130059e+01  -1.1805475903137282e+01  -1.2044155602278339e+01  -1.2285755552016944e+01  -1.2446747839272749e+01  -1.3318330825240359e+01  -1.3866198370618754e+01  -1.3398497394146514e+01  -1.4000647031923911e+01  -1.3925635060402795e+01  -1.3709049263000418e+01  -1.2741880615694560e+01  -1.3890927929137044e+01  -1.4228167994437849e+01  -1.3387497399544413e+01  -1.1852014511943677e+01  -1.2482136210790379e+01  -1.1237542056107245e+01  -1.0209802599277104e+01  -8.2582656461635260e+00  -7.8501634300075116e+00  -6.7692555390141074e+00  -5.2193717058638009e+00  -3.3866702496323215e+00  -2.3746043833191557e+00  -1.1319129377882013e+00  2.8885425117475577e-01  1.7739324415492908e+00  3.2191848645035916e+00  4.5751172465489152e+00  5.7515046150676739e+00  6.8132969656246312e+00  7.9662387223358859e+00  8.9651440930597186e+00  9.8123458527586109e+00  1.0428250717487163e+01  1.1746417023376145e+01  1.2588810235802498e+01  1.2917411292951623e+01  1.3346460234415714e+01  1.3555791945768579e+01  1.4129104546941043e+01  1.4366914800617220e+01  1.4394390647902268e+01  1.4597979630524181e+01  1.4630284070246466e+01  1.4551664506988963e+01  1.4439349941530711e+01  1.4193748466004937e+01  1.4092410621160338e+01  1.3857207889251814e+01  1.3497883917926252e+01  1.3256184578111522e+01  1.3071297748865494e+01  1.2768992690687368e+01  1.2402072618394351e+01  1.2146884531477868e+01  1.1751794191977353e+01  1.1249095295440231e+01  1.0741389022100263e+01  1.0134861276542516e+01  9.8591204534480816e+00  9.4318476604128634e+00  8.8395110263372398e+00  8.2541330100214161e+00  7.7159551700149409e+00  7.1283936877112133e+00  6.6244825031371812e+00  6.2745108661475513e+00  5.9801088938032132e+00  4.9752575633703291e+00  4.4105732021065176e+00  4.2541677847066204e+00  4.0236908458308323e+00  3.6147824175128984e+00  3.1491847142758069e+00  2.3070977967738173e+00  1.4509851295566987e+00  1.0101904072559182e+00  6.3079401229427878e-01  3.6337559359387761e-01  3.3447553695207827e-02  -3.2643355403730501e-01  -1.0127326102459873e+00  -1.5229319138274691e+00  -1.5714425032545727e+00  -1.7031553468924385e+00  -2.5344798625861427e+00  -3.0991728481596645e+00  -3.3183874307162609e+00  -3.5455775954618454e+00  -3.6721273673825694e+00  -3.9890381922832012e+00  -4.5795778539879715e+00  -5.1212606670772001e+00  -5.3432811784985530e+00  -5.5205677483142157e+00  -5.8592242023705285e+00  -6.1526106828147702e+00  -6.4686587149356383e+00  -6.6748060182493578e+00  -6.4744279762142263e+00  -6.6413019108260594e+00  -6.6161967126836005e+00  -6.6455090264479866e+00  -6.9744843989565153e+00  -7.0893196976428046e+00  -7.0133028534046638e+00  -7.1355542571728821e+00  -7.1355215318735894e+00  -7.0422146672430701e+00  -7.0624910952056892e+00  -6.9702071694804619e+00  -7.0453693888637385e+00  -7.0321469312592173e+00  -6.9539638727215625e+00  -6.8650551674913869e+00  -6.7535349936203524e+00  -6.6338979289756583e+00  -6.5191860623670737e+00  -6.3588913251059829e+00  -6.2216475954064849e+00  -6.0988320707984549e+00  -5.9434115780013839e+00  -5.7561491106833440e+00  -5.5582568133511669e+00  -5.4006594051594083e+00  -5.2798967957535652e+00  -5.0655900649626959e+00  -4.8771939540172076e+00  -4.5282497880382584e+00  -4.1856154727221631e+00  -4.1181767433630396e+00  -3.8045564090540758e+00  -3.5170249270995999e+00  -3.3164619020176906e+00  -3.0663749302461971e+00  -2.6110804557412477e+00  -2.3179338546403607e+00  -2.1642124555643401e+00  -2.0140160141833028e+00  -1.7281183510151719e+00  -1.4478790058119446e+00  -9.3123633419657825e-01  -4.8295846848784285e-01  -3.5998111724646520e-01  8.8699951689755932e-02  4.4593238845203770e-01  -3.3120680088621046e-01  6.3279538769013022e-01  -6.8661919948501393e-01  -7.0707450210335598e-01  5.0987278842561268e-01  2.1181148738812891e-01  -1.0918348056602656e-01  -1.1599024870906038e+00  2.2513464603286329e-01  -2.0322321802554738e-01  2.5764223353222682e-01  -2.0285599421930471e-02  -1.9850990055965176e+00  1.6088642392496664e+00  -3.7175705550274540e-01  2.8323835526819896e-01  4.0754844267417123e-01  3.2438211963549629e-01  -1.2189482594383014e-01  -1.9198786609938491e-02  2.6675628071033435e+00  2.5651007232200135e-01  -2.8733611282657184e-01  -1.5945733824244854e+00  -1.7591839015178548e-01  2.6736244636859563e-01  5.7717846347433759e-02  2.1303685080228609e+00  1.5580694942906481e-01  -5.4838266443037087e-01  6.1960511725587886e-01  -2.1120725404353985e-01  -1.0890799252234113e+00  -3.9566469984936387e-01  4.1379742916592482e-01  4.1696029646000825e-02  -1.3684871932700482e+00  -3.7466430732825357e-01  2.3869563018470017e-02  2.6472864972020944e+00  1.0382447408323177e-01  -5.3619079686661286e-01  -2.0219118362108832e-01  1.4018719964743492e-01  1.0761633790652532e+00  -1.3782112580443392e-01  4.1171164108690740e-02  -2.9734331993634617e+00  -1.4863795871468313e+00  5.2639088716471220e-03  5.4700097739603992e-01  1.1327285408081476e-01  8.8051479634393925e-01  4.1402490175174194e+00  -1.1608182204859531e-01  1.5826860029649079e-01  7.1359057995304087e-01  2.0194567778003192e+00  -1.7373477515853439e+00  5.5018196970492650e-01  2.9192946937412839e-01  -1.2030055969249370e-01  -7.6399219096540527e-01  -5.4327336072838972e-01  5.4070957758222971e-01  3.7778998547887264e-02  -3.2575552995474100e-01  1.3945089093751487e-01  -1.0723029002263669e-01  3.1267434266552825e+00  -1.0598353640736706e-01  -3.6724174617187497e+00  -3.9268151731896568e+00  6.5018755688491067e-02  2.3354151103478482e-01  -7.3613984554300529e-02  -2.9149056483023139e-01  -3.2049821221423875e+00  2.6971447668676471e-02  1.6383142342079724e+00  -9.2016368824498107e-01  8.4993555800929571e-02  5.3914841342251030e-01  -3.5110185238803987e-01  -6.0878783792676527e-01  2.9755191015564151e+00  -1.4007892244438008e-01  4.0284727790269930e+00  -9.5426311096783700e-01  -2.8220238290153068e+00  5.7969447587460543e-01  5.9969728704059557e+00  -5.4000067836722132e-01  -6.4007770915069939e-01  2.7075744125291290e-01  -4.8851888524293315e-03  -4.1690271149024855e-01  5.7525408427087532e-01  -3.9458566499044778e-01  -6.4739639407696984e-03  -3.5434131862777829e-01  2.1121284403996912e+00  -1.1769280661261990e-01  -5.9198173669118481e-01  -3.3696414184295342e+00  -4.6869154446988326e-01  4.2917200716758712e+00  1.8459415045261565e-01  7.6027528718899687e-02  -5.9144353292734519e-01  -2.2741471728433676e-01  9.7134205769898452e-01  -2.6802213710631029e-01  2.4349770557302389e-01  -9.1885367226237816e-02  1.2006536919739821e-01  -5.3235996287634464e+00  3.2834498078873697e-01  2.2294687944545606e+00  1.4571786133102183e-01  1.0127950904777867e+00  2.0224456474152297e-01  5.3683362697618309e-01  -5.6699145232838433e-01  -1.1903398902910860e+00  1.4924893380669928e+00  -1.0209343242117370e+00  1.1765406221432166e-01  -2.3734606641267235e+00  7.8625274317156748e+00  -5.1970148536352379e-01  -4.0455497319869965e-01  -3.2675377754130491e-01  5.3410586813754968e-01  -3.6052378617294917e-01  5.8294316543325717e+00  -9.2606595304330255e-02  -4.1048748256049811e-01  4.9341402866741386e-02  2.0373588473223087e-01  1.4164154597720072e-01  -3.7398412822622729e-01  4.7858552031997431e-01  5.7597511020302916e-01  -2.7635626769029958e-01  -2.6445179437136390e-01  1.7695836006086547e+00  -1.6421687990586245e+00  1.0265243727468178e+00  -2.2573868884229000e+00  3.9833558490282406e-01  -1.3952670861159773e+00  -2.9004879140525286e-01  3.5679026649368959e+00  9.1054280358266543e-02  1.2654720201388292e-01  -1.2607710800824257e-01  -9.7869588151678244e-01  -1.6365446271400402e-01  -1.0204135432474133e+00  4.4746294357383626e-01  -7.0381410064738459e-01  -7.6905074695042792e+00  6.6890554831218141e-01  6.9214378697330581e-01  -5.2438807178990809e-01  -1.0557403497298752e-01  -1.1303946031924641e+00  -2.1329367432337648e-01  -9.7026843319162659e-01  -2.6173041040722222e-01  1.4886075723638550e-01  3.8930439164940289e-01  5.6355685114004439e-01  2.0459192119734337e-01  -4.3711369035266007e-01  -4.5703681852843941e-01  -4.3442358322449875e-01  2.7957067307862216e-01  -1.7282452000594911e-01  -5.4413987724710700e-01  1.3828137742646729e+00  5.4237849696803797e-01  -4.0288413923987626e-01  4.1426498766655551e-02  9.2856520370116638e+00  -1.8092358307795124e+00  1.0515227207215712e-01  4.4840865689281317e-01  4.3418134295512917e-01  5.2930844760347928e-01  2.0911216215503775e-01  5.2267468469246863e+00  2.3665301242872561e-01  5.2477894302340564e+00  4.9294496614554282e+00  -4.5714374315439449e-01  1.0281109349763886e-02  1.1892942920542420e+00  6.7759570538124192e-01  3.1923272522614288e-01  -7.1018768946640176e-01  1.0920061921497655e-01  -4.8592720481128060e-01  -9.3547321654553339e-01  -2.0891516168739726e+00  8.0844669265041691e-02  1.3252792174486935e-01  3.3195199314004953e-01  1.5623598535623373e-01  7.2691628540003272e-01  7.1560036769392332e-01  -2.9348079742465627e-01  1.7915811390371955e-01  -2.2302022745233803e-02  1.6651014440795087e+00  2.0997029364971764e+00  6.5092778470732504e-01  -2.9445157463686773e-02  2.4318479478893851e-01  -1.3928669359204895e-01  2.7122468191976004e+00  -4.0986980757171293e-01  -2.1218037846623836e-01  -3.5303654959645185e+00  -4.2802846786967166e+00  -4.7746737634121983e+00  6.9142967071571992e-01  -9.8578544714657461e+00  -1.5977047633537900e-01  4.8631213664012921e-02  -5.2917555885586687e-01  7.8180955989083980e+00  -6.6341843601713912e-01  -4.7319451550233643e-01  -6.8310984825587839e-01  -1.6733422586125441e-02  -9.8803393476686971e-02  -4.5695038754462614e-01  2.0476861386444864e-01  8.1641011942752015e-02  -2.2338495899613092e-02  -4.2251919840472836e-02  9.0181774236530246e-03  1.0340552832660123e+01  1.1836547363938267e-01  -1.5659941700588302e+00  9.0306773956437691e-01  3.5932887250433981e-01  -4.6951452707640778e-01  -2.0409383017850677e-01  2.3481456399332146e+00  -6.1995138281787165e-01  3.4385252467890255e+00  2.2440624379846943e-01  -5.2676312139069570e-01  4.3798097205891723e-01  -7.0773245274559371e-01  6.5290912026722481e-01  3.1170076171371924e-01  1.1932558779785327e+00  2.6852333520464620e+00  2.1952241337711733e+00  3.2613167236137525e-01  3.3966744007437016e-01  -4.7072556189249840e-02  -5.4347970315326344e-02  1.6980912393756126e-01  2.6809192383210262e-01  8.1937256121654189e-01  6.3255687847047126e-01  -4.9529540806824306e-02  -1.5468062376116576e-01  -2.1303934680059777e+00  -7.2129087850988594e-01  -6.5231047926007557e-01  -6.8158035144731577e-01  -2.2942630495901843e+00  7.2319324665681098e-02  -3.4779274304905688e-01  -4.6983286192615631e-02  -2.7745532354689377e+00  1.6497555896245759e+00  6.2635414307632775e-01  -1.1788224619741350e+00  6.5628508758660342e-01  2.2157953972809649e-01  3.4996016220919657e-01  2.6677953043389419e-01  9.0683609559877376e-01  -4.3030111082644124e-01  8.8690578052763105e-02  -5.1486528370974165e+00  -5.9591571993866310e-01  7.7230959723918273e+00  -1.0641496851945265e+01  1.4476294134704898e-01  3.2597380166036583e-02  4.8955