<?xml version="1.0"?>
<VTKFile type="UnstructuredGrid"  version="0.1"  >
<UnstructuredGrid>
<Piece  NumberOfPoints="6869" NumberOfCells="12420">
<Points>
<DataArray  type="Float64"  NumberOfComponents="3"  format="ascii">2 0 0  1.999397637392408 0.04908245704582458 0  1.997590912410345 0.09813534865483603 0  1.99458091335738 0.1471291271993349 0  1.990369453344394 0.1960342806591212 0  1.98495906919742 0.2448213503984324 0  1.978353019929562 0.2934609489107235 0  1.970555284777882 0.3419237775206024 0  1.961570560806461 0.3901806440322565 0  1.951404260077057 0.4382024803137396 0  1.940062506389088 0.4859603598065277 0  1.92755213159088 0.5334255149497967 0  1.913880671464418 0.5805693545089247 0  1.899056361186073 0.627363480797783 0  1.883088130366042 0.6737797067844401 0  1.865985597669478 0.7197900730699762 0  1.847759065022573 0.7653668647301796 0  1.828419511407061 0.8104826280099797 0  1.807978586246887 0.8551101868605642 0  1.786448602391031 0.8992226593092131 0  1.76384252869671 0.9427934736519953 0  1.740173982217423 0.9857963844595681 0  1.715457220000544 1.028205488386443 0  1.689707130499414 1.069995239774194 0  1.66293922460509 1.111140466039204 0  1.635169626303167 1.151616382835691 0  1.60641506296129 1.191398608984867 0  1.576692855253213 1.230463181161254 0  1.546020906725474 1.268786568327291 0  1.514417693012969 1.306345685907554 0  1.481902250709918 1.343117909694037 0  1.448494165902934 1.379081089474134 0  1.414213562373095 1.414213562373095 0  1.379081089474134 1.448494165902934 0  1.343117909694037 1.481902250709918 0  1.306345685907554 1.514417693012969 0  1.268786568327291 1.546020906725474 0  1.230463181161254 1.576692855253212 0  1.191398608984867 1.60641506296129 0  1.151616382835691 1.635169626303167 0  1.111140466039205 1.66293922460509 0  1.069995239774195 1.689707130499414 0  1.028205488386443 1.715457220000544 0  0.9857963844595682 1.740173982217423 0  0.9427934736519956 1.76384252869671 0  0.8992226593092132 1.786448602391031 0  0.8551101868605644 1.807978586246887 0  0.8104826280099797 1.828419511407061 0  0.7653668647301797 1.847759065022573 0  0.7197900730699766 1.865985597669478 0  0.6737797067844401 1.883088130366042 0  0.6273634807977831 1.899056361186073 0  0.5805693545089247 1.913880671464418 0  0.5334255149497968 1.92755213159088 0  0.485960359806528 1.940062506389088 0  0.4382024803137395 1.951404260077057 0  0.3901806440322567 1.961570560806461 0  0.3419237775206027 1.970555284777882 0  0.2934609489107235 1.978353019929562 0  0.2448213503984326 1.98495906919742 0  0.1960342806591215 1.990369453344394 0  0.1471291271993349 1.99458091335738 0  0.09813534865483625 1.997590912410345 0  0.04908245704582453 1.999397637392408 0  1.224646799147353e-16 2 0  -0.04908245704582428 1.999397637392408 0  -0.09813534865483602 1.997590912410345 0  -0.1471291271993347 1.99458091335738 0  -0.1960342806591213 1.990369453344394 0  -0.2448213503984323 1.98495906919742 0  -0.2934609489107233 1.978353019929562 0  -0.3419237775206025 1.970555284777882 0  -0.3901806440322564 1.961570560806461 0  -0.4382024803137393 1.951404260077057 0  -0.4859603598065277 1.940062506389088 0  -0.5334255149497966 1.92755213159088 0  -0.5805693545089243 1.913880671464418 0  -0.6273634807977828 1.899056361186073 0  -0.6737797067844399 1.883088130366042 0  -0.7197900730699763 1.865985597669478 0  -0.7653668647301795 1.847759065022573 0  -0.8104826280099795 1.828419511407061 0  -0.8551101868605637 1.807978586246887 0  -0.8992226593092134 1.78644860239103 0  -0.9427934736519954 1.76384252869671 0  -0.985796384459568 1.740173982217423 0  -1.028205488386443 1.715457220000544 0  -1.069995239774194 1.689707130499414 0  -1.111140466039204 1.662939224605091 0  -1.151616382835691 1.635169626303167 0  -1.191398608984867 1.60641506296129 0  -1.230463181161253 1.576692855253213 0  -1.268786568327291 1.546020906725474 0  -1.306345685907553 1.514417693012969 0  -1.343117909694037 1.481902250709918 0  -1.379081089474134 1.448494165902934 0  -1.414213562373095 1.414213562373095 0  -1.448494165902934 1.379081089474134 0  -1.481902250709918 1.343117909694037 0  -1.514417693012969 1.306345685907553 0  -1.546020906725474 1.268786568327291 0  -1.576692855253212 1.230463181161254 0  -1.60641506296129 1.191398608984867 0  -1.635169626303167 1.151616382835691 0  -1.662939224605091 1.111140466039204 0  -1.689707130499414 1.069995239774194 0  -1.715457220000544 1.028205488386444 0  -1.740173982217423 0.9857963844595683 0  -1.76384252869671 0.9427934736519957 0  -1.78644860239103 0.8992226593092137 0  -1.807978586246887 0.8551101868605641 0  -1.828419511407061 0.8104826280099798 0  -1.847759065022573 0.7653668647301798 0  -1.865985597669478 0.7197900730699767 0  -1.883088130366041 0.6737797067844407 0  -1.899056361186073 0.6273634807977828 0  -1.913880671464418 0.5805693545089248 0  -1.92755213159088 0.533425514949797 0  -1.940062506389088 0.4859603598065281 0  -1.951404260077057 0.4382024803137401 0  -1.961570560806461 0.3901806440322572 0  -1.970555284777882 0.3419237775206024 0  -1.978353019929562 0.2934609489107236 0  -1.98495906919742 0.2448213503984327 0  -1.990369453344394 0.1960342806591217 0  -1.99458091335738 0.1471291271993355 0  -1.997590912410345 0.09813534865483593 0  -1.999397637392408 0.04908245704582465 0  -2 2.449293598294706e-16 0  -1.999397637392408 -0.04908245704582416 0  -1.997590912410345 -0.09813534865483545 0  -1.99458091335738 -0.147129127199335 0  -1.990369453344394 -0.1960342806591212 0  -1.98495906919742 -0.2448213503984322 0  -1.978353019929562 -0.2934609489107232 0  -1.970555284777883 -0.3419237775206019 0  -1.961570560806461 -0.3901806440322567 0  -1.951404260077057 -0.4382024803137396 0  -1.940062506389088 -0.4859603598065276 0  -1.92755213159088 -0.5334255149497965 0  -1.913880671464418 -0.5805693545089242 0  -1.899056361186074 -0.6273634807977824 0  -1.883088130366042 -0.6737797067844402 0  -1.865985597669478 -0.7197900730699762 0  -1.847759065022574 -0.7653668647301793 0  -1.828419511407061 -0.8104826280099794 0  -1.807978586246887 -0.8551101868605636 0  -1.786448602391031 -0.8992226593092133 0  -1.76384252869671 -0.9427934736519953 0  -1.740173982217423 -0.9857963844595679 0  -1.715457220000544 -1.028205488386443 0  -1.689707130499414 -1.069995239774194 0  -1.662939224605091 -1.111140466039204 0  -1.635169626303167 -1.151616382835691 0  -1.60641506296129 -1.191398608984866 0  -1.576692855253213 -1.230463181161253 0  -1.546020906725474 -1.268786568327291 0  -1.51441769301297 -1.306345685907553 0  -1.481902250709918 -1.343117909694037 0  -1.448494165902934 -1.379081089474134 0  -1.414213562373095 -1.414213562373095 0  -1.379081089474134 -1.448494165902934 0  -1.343117909694037 -1.481902250709918 0  -1.306345685907554 -1.514417693012968 0  -1.268786568327292 -1.546020906725473 0  -1.230463181161255 -1.576692855253212 0  -1.191398608984866 -1.60641506296129 0  -1.15161638283569 -1.635169626303168 0  -1.111140466039204 -1.66293922460509 0  -1.069995239774195 -1.689707130499414 0  -1.028205488386444 -1.715457220000544 0  -0.9857963844595684 -1.740173982217423 0  -0.9427934736519957 -1.76384252869671 0  -0.8992226593092139 -1.78644860239103 0  -0.8551101868605649 -1.807978586246886 0  -0.8104826280099807 -1.828419511407061 0  -0.7653668647301807 -1.847759065022573 0  -0.7197900730699759 -1.865985597669478 0  -0.6737797067844399 -1.883088130366042 0  -0.6273634807977829 -1.899056361186073 0  -0.5805693545089249 -1.913880671464418 0  -0.5334255149497971 -1.92755213159088 0  -0.4859603598065282 -1.940062506389088 0  -0.4382024803137402 -1.951404260077057 0  -0.3901806440322573 -1.961570560806461 0  -0.3419237775206034 -1.970555284777882 0  -0.2934609489107246 -1.978353019929562 0  -0.2448213503984319 -1.98495906919742 0  -0.1960342806591209 -1.990369453344394 0  -0.1471291271993347 -1.99458091335738 0  -0.09813534865483606 -1.997590912410345 0  -0.04908245704582478 -1.999397637392408 0  -3.673940397442059e-16 -2 0  0.04908245704582404 -1.999397637392408 0  0.09813534865483532 -1.997590912410345 0  0.147129127199334 -1.99458091335738 0  0.1960342806591202 -1.990369453344394 0  0.2448213503984312 -1.98495906919742 0  0.2934609489107239 -1.978353019929562 0  0.3419237775206027 -1.970555284777882 0  0.3901806440322566 -1.961570560806461 0  0.4382024803137395 -1.951404260077057 0  0.4859603598065275 -1.940062506389088 0  0.5334255149497964 -1.92755213159088 0  0.5805693545089241 -1.913880671464418 0  0.6273634807977823 -1.899056361186074 0  0.6737797067844392 -1.883088130366042 0  0.7197900730699752 -1.865985597669478 0  0.76536686473018 -1.847759065022573 0  0.8104826280099801 -1.828419511407061 0  0.8551101868605643 -1.807978586246887 0  0.8992226593092132 -1.786448602391031 0  0.9427934736519952 -1.76384252869671 0  0.9857963844595677 -1.740173982217423 0  1.028205488386443 -1.715457220000544 0  1.069995239774194 -1.689707130499414 0  1.111140466039204 -1.662939224605091 0  1.15161638283569 -1.635169626303168 0  1.191398608984866 -1.606415062961291 0  1.230463181161254 -1.576692855253212 0  1.268786568327291 -1.546020906725474 0  1.306345685907554 -1.514417693012969 0  1.343117909694037 -1.481902250709918 0  1.379081089474134 -1.448494165902934 0  1.414213562373095 -1.414213562373095 0  1.448494165902933 -1.379081089474134 0  1.481902250709918 -1.343117909694037 0  1.514417693012968 -1.306345685907554 0  1.546020906725473 -1.268786568327292 0  1.576692855253212 -1.230463181161255 0  1.60641506296129 -1.191398608984866 0  1.635169626303167 -1.15161638283569 0  1.66293922460509 -1.111140466039204 0  1.689707130499414 -1.069995239774195 0  1.715457220000544 -1.028205488386444 0  1.740173982217423 -0.9857963844595685 0  1.76384252869671 -0.9427934736519958 0  1.78644860239103 -0.899222659309214 0  1.807978586246886 -0.8551101868605651 0  1.828419511407061 -0.8104826280099808 0  1.847759065022573 -0.7653668647301808 0  1.865985597669478 -0.719790073069976 0  1.883088130366042 -0.67377970678444 0  1.899056361186073 -
[...]
<PointData  Scalars="f_2885315"> 
<DataArray  type="Float64"  Name="f_2885315"  format="ascii">1.0868945514457276e+00  1.1027299696569670e+00  1.1229113641888044e+00  1.1364626345114270e+00  1.1590909542017118e+00  1.1698761232615533e+00  1.1928092179203980e+00  1.2043592384551998e+00  1.2253148245886651e+00  1.2398202953182349e+00  1.2535094822789377e+00  1.2772647676147140e+00  1.2878434069619109e+00  1.3056287299703437e+00  1.3171206315644826e+00  1.3342733291818076e+00  1.3545949823789731e+00  1.3624130987511465e+00  1.3866480812922970e+00  1.3976519698672221e+00  1.4033318489797020e+00  1.4236712980167840e+00  1.4335607598303997e+00  1.4465470140954766e+00  1.4619913915616460e+00  1.4713630808486822e+00  1.4890186463829738e+00  1.4961757532251314e+00  1.5081960672109764e+00  1.5158778758571245e+00  1.5308673856992718e+00  1.5346925962329216e+00  1.5402680108759377e+00  1.5404008990758657e+00  1.5540310949944913e+00  1.5617828611336393e+00  1.5629407300763567e+00  1.5678228000427643e+00  1.5665559874485295e+00  1.5769809637147820e+00  1.5722698918896147e+00  1.5706074379321715e+00  1.5750143538626027e+00  1.5723523401680464e+00  1.5702830294649051e+00  1.5636831118344787e+00  1.5606061152251338e+00  1.5490392128814954e+00  1.5456590429748849e+00  1.5361261077129289e+00  1.5277806063419670e+00  1.5173476679069602e+00  1.5003892107780910e+00  1.4874761734732722e+00  1.4702278777604421e+00  1.4538358207802748e+00  1.4321731187362206e+00  1.4200319915385609e+00  1.3978055917905723e+00  1.3795268968594430e+00  1.3595679750101894e+00  1.3336091530271432e+00  1.3080354319710625e+00  1.2811765523595289e+00  1.2565403018972796e+00  1.2327257823375544e+00  1.2038291262348955e+00  1.1804602596689107e+00  1.1553237348471590e+00  1.1319208954827198e+00  1.1001624262432173e+00  1.0735982761320482e+00  1.0437548421199130e+00  1.0209830285640416e+00  9.8892271195159631e-01  9.5756284122308566e-01  9.3192906730493497e-01  9.0474374920180900e-01  8.7465364479735630e-01  8.4600699636040566e-01  8.1682408485479074e-01  7.8460597853680569e-01  7.6150249518118107e-01  7.2734420529470578e-01  7.0219095714851520e-01  6.9136696961946920e-01  6.5647060936974089e-01  6.4919606385000184e-01  6.0414405434377749e-01  6.1441081119331398e-01  5.9560961888462172e-01  5.8550465373225546e-01  5.8469932140330505e-01  5.9579246456817969e-01  6.2111989724576933e-01  6.6304545952090954e-01  5.9956798600490413e-01  7.3411794378069195e-01  6.5988938092575289e-01  6.9296926581954255e-01  6.7215447246765880e-01  8.3257896356859973e-01  9.8677276396279201e-01  1.3906706471115093e+00  1.8439825930069764e+00  2.0792282917757303e+00  2.5900334130860658e+00  3.4607415065353346e+00  4.3566200804900452e+00  5.6774422834782605e+00  6.7954091610676945e+00  7.8379145210887806e+00  8.8492678758445713e+00  9.8254220014471549e+00  1.0929219778394286e+01  1.2012382997165185e+01  1.3054097000231224e+01  1.4132535655944876e+01  1.4974928589314132e+01  1.5721405812558841e+01  1.6412177135601411e+01  1.6778111131006423e+01  1.7094553700694945e+01  1.7031957811337023e+01  1.7034670124205455e+01  1.7024484174259580e+01  1.6407086821717037e+01  1.5633031702196947e+01  1.4725874705285809e+01  1.3513183618078523e+01  1.2480486067692569e+01  1.1120267552476223e+01  1.0119053379379427e+01  8.8789674198909427e+00  7.5555517818193598e+00  6.5311207558480469e+00  5.6019786248679813e+00  4.5952907933068889e+00  3.7914863369275391e+00  3.2416739292800800e+00  2.4658487750742752e+00  2.0532217864356244e+00  1.7641594952929900e+00  1.4693338724887439e+00  1.2569540938931891e+00  1.1406792675680242e+00  9.4310562574439727e-01  9.0333061121218583e-01  8.5912077552965638e-01  8.1638754838742944e-01  8.5889641998186572e-01  8.5252905396857770e-01  8.8410387098759546e-01  8.2900199781783379e-01  9.8415971063556906e-01  1.4819251123060684e+00  1.4423834337835522e+00  1.5631917468340164e+00  1.7492869379803790e+00  1.7825126324716096e+00  1.8378047418477763e+00  1.9069578952506743e+00  2.0054457766862690e+00  1.9483359786674062e+00  2.0020946265497730e+00  2.1096372510618133e+00  2.0297572716370129e+00  1.9944846536113656e+00  2.0604299394465535e+00  2.0311935582562857e+00  1.9899027625972177e+00  2.0286718463279012e+00  2.0060787860464022e+00  1.9416087921185894e+00  1.9021377635645866e+00  1.8597039082680200e+00  1.8274634150488296e+00  1.7940578534324858e+00  1.7607443023107150e+00  1.6942698015936219e+00  1.6470212003151441e+00  1.5906162947239495e+00  1.5521208987235773e+00  1.5422564608774245e+00  1.4937181580615764e+00  1.4497758442544495e+00  1.4209798799546691e+00  1.3950509464658578e+00  1.3650167460740392e+00  1.3298133778095933e+00  1.2876382028497675e+00  1.2591031381387530e+00  1.2201971729623451e+00  1.1897251769810726e+00  1.1697601585520798e+00  1.1409400825534060e+00  1.1088701350118848e+00  1.0735782882659495e+00  1.0474636556393266e+00  1.0194982207144165e+00  9.9338978393416877e-01  9.6947280038447003e-01  9.4334731493967661e-01  9.1682171787422739e-01  8.9574500392922063e-01  8.7349248643039090e-01  8.5309320084125206e-01  8.3160318432622915e-01  8.1243484880842465e-01  7.9752967702930422e-01  7.8302032697903734e-01  7.6739770751779535e-01  7.5619644501654182e-01  7.4408982261768220e-01  7.3472737479553785e-01  7.2674366071960717e-01  7.1910283134096298e-01  7.1244303580646318e-01  7.0825961722917385e-01  7.0516046600006876e-01  7.0147520124723195e-01  7.0186952909390821e-01  7.0260140570855800e-01  7.0188865975416348e-01  7.0331656341548454e-01  7.0549966748701165e-01  7.0986617836856158e-01  7.1429668924326983e-01  7.2103634603924915e-01  7.2708184033448953e-01  7.3407020256592515e-01  7.4240644396629185e-01  7.4917292569461880e-01  7.5965251006966961e-01  7.7147082328387484e-01  7.7876099621416661e-01  7.9183464104451451e-01  8.0535445330073130e-01  8.1333044402900834e-01  8.2456047410449695e-01  8.4085877882759741e-01  8.5396029466966483e-01  8.6544340356080629e-01  8.7982895059633515e-01  8.9692520956253030e-01  9.1062078177596339e-01  9.2525988559013916e-01  9.4119411666495090e-01  9.6064615872818027e-01  9.7259645272147910e-01  9.8918452638473342e-01  1.0031330109015528e+00  1.0221457978754422e+00  1.0371864981656860e+00  1.0556765748886825e+00  1.0728659290585667e+00  4.6065494058814203e+00  4.7955910258092951e+00  4.8736802123080887e+00  4.8817666817256251e+00  5.2793891144141512e+00  5.5068108608893542e+00  5.4024096962529073e+00  5.5419579587931267e+00  6.0195418622618240e+00  6.5300043478510066e+00  6.6694544679908798e+00  6.8722510427550549e+00  6.9934314552747914e+00  7.0276812186021909e+00  7.0731229401515057e+00  6.7181810069202541e+00  7.0824619624453291e+00  7.2439574346729296e+00  7.5987121206637660e+00  7.7555730498723809e+00  7.7990161552421426e+00  7.8835918071138371e+00  7.9354312131700455e+00  8.0018406547115344e+00  8.1351130712837811e+00  8.0870071159736092e+00  8.2782123948974551e+00  8.2647306687878963e+00  8.3106180864062793e+00  8.3510057926126340e+00  8.3743469774154526e+00  8.6347983204062579e+00  8.4983917694936082e+00  8.6622997717911634e+00  8.6584584881958566e+00  8.8358840166809269e+00  8.9310221072345719e+00  8.7795385085499422e+00  8.7272506990443723e+00  8.8783362867639823e+00  8.9347955870742091e+00  8.9304214816299989e+00  8.8748692226922046e+00  8.7770900245161148e+00  8.7515794705070995e+00  8.6787630345329543e+00  8.5920651289926777e+00  8.6196396552498005e+00  8.5764078772113717e+00  8.4678518215977547e+00  8.3755627323763076e+00  8.2993250470794599e+00  8.2042549470083976e+00  8.0486291299600268e+00  7.9045031084631328e+00  7.7699615850607069e+00  7.6828603388214773e+00  7.5581429813478218e+00  7.3888588263729886e+00  7.2079105938460772e+00  7.0210234828658891e+00  6.8725034006082772e+00  6.6831623354927219e+00  6.4856238808617137e+00  6.2865170547847820e+00  6.0902017580771979e+00  5.9103159525605333e+00  5.6925697861891313e+00  5.4753308702543402e+00  5.3013587584564670e+00  5.1304788116229307e+00  4.9402884699888547e+00  4.7418559755432961e+00  4.5544452404767988e+00  4.3695776159877022e+00  4.1766970866157100e+00  4.0211715535855630e+00  3.8484114522998536e+00  3.6824876364410004e+00  3.5348860184837774e+00  3.4074541540281222e+00  3.2462535369447294e+00  3.1524085681170986e+00  3.0968869433207131e+00  3.0603735056817882e+00  3.0957592415688326e+00  3.0615616325366228e+00  2.9404884776291671e+00  2.7997916625766708e+00  2.6869670694896355e+00  2.6588429394565360e+00  2.5938916731643156e+00  2.4772564901017962e+00  2.4958085892483548e+00  2.7547829310843905e+00  2.7935157048681165e+00  2.6687097572071270e+00  2.7245402931746114e+00  2.6622171016097131e+00  2.8034795539205253e+00  2.7819161634399281e+00  2.7101627601108822e+00  2.6796842688104636e+00  2.6376781517889469e+00  2.5240274459023184e+00  2.4357399693894966e+00  2.2400164956326218e+00  2.0786633616622536e+00  1.8700040805955236e+00  1.7859833853323814e+00  1.5369545008766323e+00  1.2816437454651721e+00  9.5185707405809161e-01  6.3065484243987979e-01  4.2289644435768164e-01  -6.2327315569901198e-01  -1.2820326817778041e+00  -7.7514327212372036e-01  -1.4655831843240650e+00  -1.4390831751822972e+00  -1.2782404607425910e+00  -3.2431058530132428e-01  -1.6591139935375330e+00  -2.1627691516369989e+00  -1.4704111685678087e+00  -7.1033266770782297e-02  -9.5989547915418016e-01  1.9650758344450254e-02  7.5775062843951946e-01  2.4496386451299577e+00  2.5024668756025656e+00  3.1929264607009586e+00  4.3351409308130924e+00  5.8258611268812537e+00  6.4072937996514971e+00  7.2026886644461188e+00  8.1699649813556530e+00  9.2921217289644549e+00  1.0309766379834642e+01  1.1233611280632728e+01  1.1983025689672164e+01  1.2738810019700226e+01  1.3569368827555701e+01  1.4246055181011059e+01  1.4783492487540029e+01  1.5071018964531849e+01  1.6230165944984972e+01  1.6758512519361474e+01  1.6765502908812358e+01  1.7022199311287348e+01  1.7008106110034934e+01  1.7577170369992654e+01  1.7685364074575908e+01  1.7558409618375002e+01  1.7766611673463863e+01  1.7741207626834939e+01  1.7645948350354796e+01  1.7533296043692928e+01  1.7205679182839834e+01  1.7311404956974954e+01  1.7079031416724941e+01  1.6645646383588559e+01  1.6664257232842516e+01  1.6561146726764207e+01  1.6261273404067566e+01  1.5712065821898832e+01  1.5390788511852540e+01  1.5278892514213622e+01  1.5050115871712569e+01  1.4802930268637201e+01  1.4552147590770202e+01  1.4060901606130109e+01  1.3789845515075069e+01  1.3547629957968542e+01  1.3237214698787056e+01  1.2845291935524489e+01  1.2506357462692263e+01  1.2139918957039484e+01  1.1774928221173466e+01  1.1423027809796176e+01  1.1217391196191768e+01  1.0903152598794431e+01  1.0501741078760430e+01  1.0230687950830566e+01  9.9406026789681583e+00  9.6392323214330631e+00  9.3069751454226921e+00  8.9319393043518485e+00  8.5553971576385326e+00  8.2104002226816792e+00  7.8750858227204033e+00  7.6212099001852636e+00  7.3669899101816263e+00  7.0848209268293774e+00  6.7870736791071886e+00  6.4907703589329460e+00  6.2739162494779963e+00  6.0121943320805595e+00  5.7304697663918454e+00  5.4474506300232344e+00  5.2126601119647429e+00  4.9876611444712760e+00  4.7725418301441618e+00  4.5421879603339166e+00  4.3084872060275963e+00  4.0743519423169996e+00  3.9027625154518311e+00  3.7405114539032311e+00  3.5793115801303599e+00  3.4036447899308278e+00  3.2322689718594244e+00  3.0321737268668754e+00  2.9309420279075988e+00  2.7668857253930139e+00  2.6695269098113084e+00  2.6649147134835758e+00  2.5499021628000809e+00  2.3873896299884936e+00  2.3635434640226225e+00  2.2611092959595913e+00  2.1569486891998664e+00  2.1452829539547218e+00  1.8916269940255483e+00  2.0843537047740135e+00  2.1412155936178277e+00  2.0856142865464689e+00  2.0906725808316060e+00  1.8909367053621597e+00  1.9545518335800200e+00  1.9715760365340296e+00  2.1274341790354034e+00  2.1819945797545635e+00  2.1893440798808137e+00  2.2510377922257065e+00  2.3531422623771672e+00  2.4133815173100217e+00  2.3615790783208515e+00  2.3199142385650044e+00  2.4199697608733834e+00  2.4721032544769059e+00  2.7158259249972310e+00  2.9142455141327797e+00  2.7821037781044997e+00  2.9736053426150306e+00  3.1148532611687036e+00  3.1518368783527748e+00  3.2758485467963960e+00  3.6054022701500759e+00  3.7507395269559778e+00  3.7395323953051549e+00  3.7500634699789237e+00  3.8858374165875955e+00  4.0108911337626179e+00  4.3615234774592340e+00  4.6261048245322884e+00  4.5613116518927770e+00  1.1145427356988893e+00  1.3115571945929281e+00  9.1855408920018400e-01  1.4535636039909148e+00  7.9960815409797037e-01  9.1354810281109422e-01  1.4399777594208454e+00  1.1618466388407558e+00  1.0058564255534557e+00  9.3929544982598001e-01  1.6334067287860174e+00  9.8199374423293007e-01  1.1959140568338473e+00  1.0524193973160225e+00  6.9182813583682845e-01  2.5113523947964391e+00  8.9178395038974922e-01  1.5467202905543920e+00  1.2726455400703227e+00  1.9244362390813221e+00  1.0269312112006550e+00  1.1069581036513758e+00  3.3814822708168926e+00  1.2183382295471132e+00  9.6627970406401886e-01  1.2226400112217162e+00  9.9345460569866040e-01  1.2155002090175890e+00  2.1081889107441096e+00  3.3281317153490395e+00  1.1440951224909184e+00  8.3164801774704944e-01  1.4298986193579344e+00  9.6544028385576619e-01  1.5388567011331455e+00  8.7880624596335943e-01  1.2820435148818183e+00  1.1858833016073707e+00  7.6489544118460506e-01  9.4317824251732385e-01  1.0732484208357325e+00  3.8469899839986543e+00  1.1038958700902572e+00  8.2609600949906703e-01  1.0174879475621359e+00  2.6344515954188945e+00  2.7287793945877814e+00  1.2267185440847461e+00  1.0750654981531449e+00  8.3329340470995750e-01  1.8824072019249993e+00  1.1431351277200079e+00  1.3585934761015648e+00  1.1082564522378606e+00  1.8388567747747706e+00  4.8800856917852071e+00  1.0130910910103461e+00  1.1382313544670135e+00  1.5413606729276537e+00  2.7494225127730716e+00  8.1982055521557873e-01  1.3932671296070125e+00  1.2163557045918394e+00  1.0504663115981163e+00  8.1712713666156056e-01  8.4441267601666559e-01  1.3763181335895187e+00  1.0906362717991283e+00  2.1318432164731234e+00  1.1616813502442351e+00  1.2060086917305253e+00  4.0807456293233777e+00  1.0206215175064550e+00  7.7430052127944582e-01  5.6574619433780093e-01  1.0830437478358730e+00  1.2393112085752909e+00  1.0297105254701970e+00  9.8299302500985097e-01  1.5170469395735680e+00  1.1163191680918889e+00  3.8601201511113148e+00  7.6450379583885253e-01  1.2429875957675642e+00  1.3550754885989071e+00  1.0348195946005125e+00  7.9076576179308600e-01  4.6825913017149441e+00  1.0133262134769001e+00  4.8151989118415637e+00  1.6895866415902940e+00  1.0901809077465059e+00  1.3877619311089116e+00  6.3890614293682146e+00  8.1887317686436789e-01  7.9216763289424907e-01  1.3419706852007434e+00  1.0577161589826842e+00  9.3450468153090227e-01  1.3767279252735145e+00  9.0912152201286767e-01  1.1467539902331361e+00  9.0221593432027092e-01  3.4793116478071671e+00  1.0975091764309401e+00  1.1401302671444156e+00  1.1719734581544670e+00  8.8739269721983116e-01  4.9979017094809715e+00  1.2336404993997092e+00  1.0977918516954837e+00  1.0900627776644842e+00  9.5288184196134640e-01  1.6227504330008509e+00  9.3552589365541650e-01  1.1980300060525877e+00  1.0167414493634326e+00  1.1204325124311372e+00  9.1206918824533634e-01  1.2266752399650585e+00  3.0374964390636996e+00  1.1255612170992555e+00  1.6914081857882821e+00  1.1616036887671053e+00  1.4025604043679190e+00  8.5605072621990008e-01  8.5963861925702512e-01  2.1646708745692393e+00  7.2307832472754485e-01  1.1368892037537757e+00  1.8905278634056133e+00  8.4465746683525857e+00  3.2974342360402140e+00  1.0375213350477948e+00  9.9561214160461031e-01  1.6935143984719849e+00  9.8862340337423205e-01  6.4970144329609445e+00  1.0202867300080150e+00  9.8382000187228891e-01  1.0753535106198759e+00  1.2041431515484842e+00  1.1452739110450343e+00  9.4095460617539062e-01  1.3748729681847374e+00  1.6867602151896206e+00  9.3252683661110580e-01  9.6117866550139985e-01  4.2190866925919952e+00  1.8319489192409029e+00  2.4564840639370993e+00  7.0288666547560674e-01  1.2813091860579402e+00  1.1605970446640486e+00  1.6484934399751756e+00  5.0976446439842027e+00  1.2197258733510563e+00  1.1980025843564222e+00  1.0105010361720741e+00  1.1479752877551588e+00  9.8430105369526477e-01  2.6606149876582283e+00  2.1094482821538216e+00  7.5814546020802542e-01  4.7867814432104344e-01  3.0495681445334553e+00  1.4584430816615335e+00  8.2647037498690867e-01  1.0140993975763706e+00  7.4279166261608676e-01  9.7255023035624499e-01  8.6044950633322270e-01  1.0324504151170975e+00  1.1375232691171286e+00  1.3196953163079790e+00  1.3881686077094453e+00  1.1901979056496619e+00  9.1925251460754609e-01  8.5577782461761243e-01  8.7412522273432935e-01  1.2176545893947288e+00  9.7956130360498694e-01  9.1425199563025716e-01  2.5323667521024986e+00  2.0551302070933817e+00  8.7603296364288807e-01  1.0753529481295157e+00  1.0472344038531030e+01  7.9640152258308672e-01  1.3259710519716805e+00  1.2983728995250308e+00  1.2933522175708905e+00  1.3539400303933133e+00  1.3085221448776700e+00  6.3908380171937225e+00  1.3141410663232505e+00  5.7817741631454673e+00  5.7776866865550911e+00  1.0094101173142567e+00  1.0786030769792907e+00  1.8654982476272521e+00  1.4429979595843030e+00  1.2238880074248559e+00  8.2174874065584913e-01  1.1056713153428284e+00  8.5773129320828934e-01  9.8030209216639697e-01  9.8281838602549021e-01  1.0953046290714104e+00  1.1234701283230994e+00  1.2439685421339741e+00  1.2773849060955031e+00  3.6033537983063071e+00  2.6344844803205292e+00  9.3408254787006151e-01  1.1878832839229310e+00  1.1664943739952187e+00  2.9881122769625899e+00  3.0108009117764722e+00  1.4764470171305333e+00  1.1390073999327133e+00  1.2464495617306266e+00  1.1182047757086579e+00  3.4326742496566127e+00  1.6978102678917362e+00  9.6179672820812878e-01  2.2219986899003765e+00  6.0181036389567311e-01  3.8459160483604055e-01  1.4730675963564963e+00  5.9599147429286992e-01  1.0235810849932703e+00  1.0844129425203659e+00  1.3242899993073893e+00  7.9056474529920688e+00  7.9216445746095387e-01  8.6311112238595633e-01  7.6954841148786091e-01  1.1945373231632093e+00  1.0172902744330721e+00  8.5714803078098545e-01  1.1763125551729359e+00  1.0921761922228779e+00  1.1182166394437525e+00  1.0569781410799000e+00  1.0600270427545149e+00  1.2499124010930126e+01  1.2107359210373745e+00  7.5864437412877861e-01  1.9765034161967108e+00  1.4160315358293705e+00  2.6242375193567518e+00  9.7635592701463791e-01  4.1331122601714538e+00  2.0399689553384799e+00  4.6774379662029455e+00  3.5784370686534155e+00  8.5302567940418683e-01  1.2917268169746097e+00  7.7746708705383594e-01  1.4267588726905571e+00  1.3281738003270092e+00  1.7968385492806909e+00  3.4258127349680842e+00  3.0298563042953521e+00  1.2447067852073237e+00  1.2528359945804932e+00  1.0370154671057437e+00  1.0273986838433875e+00  1.1364108759240503e+00  1.1941267135329729e+00  1.5275932018665073e+00  1.4378844595910238e+00  1.0366056053148514e+00  1.0182137441097330e+00  1.0560102565265899e+00  8.4588622751452736e-01  7.7400795982101922e-01  8.0511541391071562e-01  7.9322929624533423e-01  1.1158355877980706e+00  9.0610611048127365e-01  1.0362620774713527e+00  1.3989325768854899e+00  2.3654316504428556e+00  1.4810974154971839e+00  7.5737129151684623e-01  1.4693528657296797e+00  1.1787737744367104e+00  1.2462373183423927e+00  1.1984547936326468e+00  2.1512093128673611e+00  8.9718427897341246e-01  1.1123429835495213e+00  4.2445654010198397e-01  1.0102828682208334e+00  8.0257175553241353e+00  1.6557077634977297e+00  1.1610586902996849e+00  1.1141633113987135e+00  1.3499312597267143e+00  9.5339381320172945e-01  7.2441817246336992e-01  1.3821497985699329e+00  9.1511390512939228e-01  1.2838764065309687e+00  1.3145800572458730e+00  9.3922320254992731e-01  7.2657928764398527e-01  1.0540298939488497e+00  3.4193075027248505e+00  1.1933993476968816e+00  9.3197814384519218e-01  1.4880174955126428e+00  1.1841328157919646e+00  1.0976091814712974e+00  9.9043994268201718e-0