<?xml version="1.0"?>
<VTKFile type="UnstructuredGrid"  version="0.1"  >
<UnstructuredGrid>
<Piece  NumberOfPoints="2401" NumberOfCells="4608">
<Points>
<DataArray  type="Float64"  NumberOfComponents="3"  format="ascii">0 0 0  0.001070538380698371 0 0  0.004277569313095364 0 0  0.009607359798386061 0 0  0.01703708685546806 0 0  0.02653493525245065 0 0  0.03806023374436157 0 0  0.05156362923366253 0 0  0.06698729810778931 0 0  0.08426519384873815 0 0  0.1033233298543955 0 0  0.1240800962605269 0 0  0.1464466094067445 0 0  0.1703270924499866 0 0  0.1956192854956637 0 0  0.2222148834902257 0 0  0.2500000000000299 0 0  0.2788556548905322 0 0  0.308658283817491 0 0  0.339280267348458 0 0  0.3705904774487813 0 0  0.4024548389919803 0 0  0.4347369038900211 0 0  0.467298435384978 0 0  0.5000000000000517 0 0  0.5327015646151253 0 0  0.5652630961100813 0 0  0.5975451610081212 0 0  0.6294095225513188 0 0  0.6607197326516399 0 0  0.6913417161826045 0 0  0.7211443451095605 0 0  0.7500000000000597 0 0  0.7777851165098603 0 0  0.8043807145044185 0 0  0.829672907550091 0 0  0.8535533905933287 0 0  0.8759199037395413 0 0  0.8966766701456674 0 0  0.9157348061513193 0 0  0.9330127018922625 0 0  0.9484363707663832 0 0  0.961939766255678 0 0  0.9734650647475827 0 0  0.9829629131445586 0 0  0.9903926402016341 0 0  0.9957224306869181 0 0  0.9989294616193084 0 0  1 0 0  0 0.02083333333333333 0  0.001070538380698371 0.02083333333333333 0  0.004277569313095364 0.02083333333333333 0  0.009607359798386061 0.02083333333333333 0  0.01703708685546806 0.02083333333333333 0  0.02653493525245065 0.02083333333333333 0  0.03806023374436157 0.02083333333333333 0  0.05156362923366253 0.02083333333333333 0  0.06698729810778931 0.02083333333333333 0  0.08426519384873815 0.02083333333333333 0  0.1033233298543955 0.02083333333333333 0  0.1240800962605269 0.02083333333333333 0  0.1464466094067445 0.02083333333333333 0  0.1703270924499866 0.02083333333333333 0  0.1956192854956637 0.02083333333333333 0  0.2222148834902257 0.02083333333333333 0  0.2500000000000299 0.02083333333333333 0  0.2788556548905322 0.02083333333333333 0  0.308658283817491 0.02083333333333333 0  0.339280267348458 0.02083333333333333 0  0.3705904774487813 0.02083333333333333 0  0.4024548389919803 0.02083333333333333 0  0.4347369038900211 0.02083333333333333 0  0.467298435384978 0.02083333333333333 0  0.5000000000000517 0.02083333333333333 0  0.5327015646151253 0.02083333333333333 0  0.5652630961100813 0.02083333333333333 0  0.5975451610081212 0.02083333333333333 0  0.6294095225513188 0.02083333333333333 0  0.6607197326516399 0.02083333333333333 0  0.6913417161826045 0.02083333333333333 0  0.7211443451095605 0.02083333333333333 0  0.7500000000000597 0.02083333333333333 0  0.7777851165098603 0.02083333333333333 0  0.8043807145044185 0.02083333333333333 0  0.829672907550091 0.02083333333333333 0  0.8535533905933287 0.02083333333333333 0  0.8759199037395413 0.02083333333333333 0  0.8966766701456674 0.02083333333333333 0  0.9157348061513193 0.02083333333333333 0  0.9330127018922625 0.02083333333333333 0  0.9484363707663832 0.02083333333333333 0  0.961939766255678 0.02083333333333333 0  0.9734650647475827 0.02083333333333333 0  0.9829629131445586 0.02083333333333333 0  0.9903926402016341 0.02083333333333333 0  0.9957224306869181 0.02083333333333333 0  0.9989294616193084 0.02083333333333333 0  1 0.02083333333333333 0  0 0.04166666666666666 0  0.001070538380698371 0.04166666666666666 0  0.004277569313095364 0.04166666666666666 0  0.009607359798386061 0.04166666666666666 0  0.01703708685546806 0.04166666666666666 0  0.02653493525245065 0.04166666666666666 0  0.03806023374436157 0.04166666666666666 0  0.05156362923366253 0.04166666666666666 0  0.06698729810778931 0.04166666666666666 0  0.08426519384873815 0.04166666666666666 0  0.1033233298543955 0.04166666666666666 0  0.1240800962605269 0.04166666666666666 0  0.1464466094067445 0.04166666666666666 0  0.1703270924499866 0.04166666666666666 0  0.1956192854956637 0.04166666666666666 0  0.2222148834902257 0.04166666666666666 0  0.2500000000000299 0.04166666666666666 0  0.2788556548905322 0.04166666666666666 0  0.308658283817491 0.04166666666666666 0  0.339280267348458 0.04166666666666666 0  0.3705904774487813 0.04166666666666666 0  0.4024548389919803 0.04166666666666666 0  0.4347369038900211 0.04166666666666666 0  0.467298435384978 0.04166666666666666 0  0.5000000000000517 0.04166666666666666 0  0.5327015646151253 0.04166666666666666 0  0.5652630961100813 0.04166666666666666 0  0.5975451610081212 0.04166666666666666 0  0.6294095225513188 0.04166666666666666 0  0.6607197326516399 0.04166666666666666 0  0.6913417161826045 0.04166666666666666 0  0.7211443451095605 0.04166666666666666 0  0.7500000000000597 0.04166666666666666 0  0.7777851165098603 0.04166666666666666 0  0.8043807145044185 0.04166666666666666 0  0.829672907550091 0.04166666666666666 0  0.8535533905933287 0.04166666666666666 0  0.8759199037395413 0.04166666666666666 0  0.8966766701456674 0.04166666666666666 0  0.9157348061513193 0.04166666666666666 0  0.9330127018922625 0.04166666666666666 0  0.9484363707663832 0.04166666666666666 0  0.961939766255678 0.04166666666666666 0  0.9734650647475827 0.04166666666666666 0  0.9829629131445586 0.04166666666666666 0  0.9903926402016341 0.04166666666666666 0  0.9957224306869181 0.04166666666666666 0  0.9989294616193084 0.04166666666666666 0  1 0.04166666666666666 0  0 0.0625 0  0.001070538380698371 0.0625 0  0.004277569313095364 0.0625 0  0.009607359798386061 0.0625 0  0.01703708685546806 0.0625 0  0.02653493525245065 0.0625 0  0.03806023374436157 0.0625 0  0.05156362923366253 0.0625 0  0.06698729810778931 0.0625 0  0.08426519384873815 0.0625 0  0.1033233298543955 0.0625 0  0.1240800962605269 0.0625 0  0.1464466094067445 0.0625 0  0.1703270924499866 0.0625 0  0.1956192854956637 0.0625 0  0.2222148834902257 0.0625 0  0.2500000000000299 0.0625 0  0.2788556548905322 0.0625 0  0.308658283817491 0.0625 0  0.339280267348458 0.0625 0  0.3705904774487813 0.0625 0  0.4024548389919803 0.0625 0  0.4347369038900211 0.0625 0  0.467298435384978 0.0625 0  0.5000000000000517 0.0625 0  0.5327015646151253 0.0625 0  0.5652630961100813 0.0625 0  0.5975451610081212 0.0625 0  0.6294095225513188 0.0625 0  0.6607197326516399 0.0625 0  0.6913417161826045 0.0625 0  0.7211443451095605 0.0625 0  0.7500000000000597 0.0625 0  0.7777851165098603 0.0625 0  0.8043807145044185 0.0625 0  0.829672907550091 0.0625 0  0.8535533905933287 0.0625 0  0.8759199037395413 0.0625 0  0.8966766701456674 0.0625 0  0.9157348061513193 0.0625 0  0.9330127018922625 0.0625 0  0.9484363707663832 0.0625 0  0.961939766255678 0.0625 0  0.9734650647475827 0.0625 0  0.9829629131445586 0.0625 0  0.9903926402016341 0.0625 0  0.9957224306869181 0.0625 0  0.9989294616193084 0.0625 0  1 0.0625 0  0 0.08333333333333333 0  0.001070538380698371 0.08333333333333333 0  0.004277569313095364 0.08333333333333333 0  0.009607359798386061 0.08333333333333333 0  0.01703708685546806 0.08333333333333333 0  0.02653493525245065 0.08333333333333333 0  0.03806023374436157 0.08333333333333333 0  0.05156362923366253 0.08333333333333333 0  0.06698729810778931 0.08333333333333333 0  0.08426519384873815 0.08333333333333333 0  0.1033233298543955 0.08333333333333333 0  0.1240800962605269 0.08333333333333333 0  0.1464466094067445 0.08333333333333333 0  0.1703270924499866 0.08333333333333333 0  0.1956192854956637 0.08333333333333333 0  0.2222148834902257 0.08333333333333333 0  0.2500000000000299 0.08333333333333333 0  0.2788556548905322 0.08333333333333333 0  0.308658283817491 0.08333333333333333 0  0.339280267348458 0.08333333333333333 0  0.3705904774487813 0.08333333333333333 0  0.4024548389919803 0.08333333333333333 0  0.4347369038900211 0.08333333333333333 0  0.467298435384978 0.08333333333333333 0  0.5000000000000517 0.08333333333333333 0  0.5327015646151253 0.08333333333333333 0  0.5652630961100813 0.08333333333333333 0  0.5975451610081212 0.08333333333333333 0  0.6294095225513188 0.08333333333333333 0  0.6607197326516399 0.08333333333333333 0  0.6913417161826045 0.08333333333333333 0  0.7211443451095605 0.08333333333333333 0  0.7500000000000597 0.08333333333333333 0  0.7777851165098603 0.08333333333333333 0  0.8043807145044185 0.08333333333333333 0  0.829672907550091 0.08333333333333333 0  0.8535533905933287 0.08333333333333333 0  0.8759199037395413 0.08333333333333333 0  0.8966766701456674 0.08333333333333333 0  0.9157348061513193 0.08333333333333333 0  0.9330127018922625 0.08333333333333333 0  0.9484363707663832 0.08333333333333333 0  0.961939766255678 0.08333333333333333 0  0.9734650647475827 0.08333333333333333 0  0.9829629131445586 0.08333333333333333 0  0.9903926402016341 0.08333333333333333 0  0.9957224306869181 0.08333333333333333 0  0.9989294616193084 0.08333333333333333 0  1 0.08333333333333333 0  0 0.1041666666666667 0  0.001070538380698371 0.1041666666666667 0  0.004277569313095364 0.1041666666666667 0  0.009607359798386061 0.1041666666666667 0  0.01703708685546806 0.1041666666666667 0  0.02653493525245065 0.1041666666666667 0  0.03806023374436157 0.1041666666666667 0  0.05156362923366253 0.1041666666666667 0  0.06698729810778931 0.1041666666666667 0  0.08426519384873815 0.1041666666666667 0  0.1033233298543955 0.1041666666666667 0  0.1240800962605269 0.1041666666666667 0  0.1464466094067445 0.1041666666666667 0  0.1703270924499866 0.1041666666666667 0  0.1956192854956637 0.1041666666666667 0  0.2222148834902257 0.1041666666666667 0  0.2500000000000299 0.1041666666666667 0  0.2788556548905322 0.1041666666666667 0  0.308658283817491 0.1041666666666667 0  0.339280267348458 0.1041666666666667 0  0.3705904774487813 0.1041666666666667 0  0.4024548389919803 0.1041666666666667 0  0.4347369038900211 0.1041666666666667 0  0.467298435384978 0.1041666666666667 0  0.5000000000000517 0.1041666666666667 0  0.5327015646151253 0.1041666666666667 0  0.5652630961100813 0.1041666666666667 0  0.5975451610081212 0.1041666666666667 0  0.62
[...]
<PointData  Scalars="f_831532"> 
<DataArray  type="Float64"  Name="f_831532"  format="ascii">2.3002046435876839e+01  2.3002703973607410e+01  2.3092930757264227e+01  2.3195737964128639e+01  2.3390586864677179e+01  2.3933419368680180e+01  2.4676807028817617e+01  2.5163868220461346e+01  2.5654923665448937e+01  2.6500211268908910e+01  2.7052858834668260e+01  2.7320002327802783e+01  2.7532580888270584e+01  2.7560734006052140e+01  2.7305499772047224e+01  2.7000694686237527e+01  2.6321933688996136e+01  2.5016447223622556e+01  2.3998758356761535e+01  2.2752992848292322e+01  2.0551418567631284e+01  1.9410923973838731e+01  1.8226834147750203e+01  1.6332850433852716e+01  1.4925760310692597e+01  1.3325583273455479e+01  1.1717304108038940e+01  1.0295697794125374e+01  8.9693809554101893e+00  8.0230001913363651e+00  7.1041968393747217e+00  6.2742600576706087e+00  5.8605634540168152e+00  5.4937568030990445e+00  5.2277694405782826e+00  5.1731343151236784e+00  5.1533347174578257e+00  5.2117012406192362e+00  5.2920552611818339e+00  5.3658457000348072e+00  5.4930870436780666e+00  5.6044658902292710e+00  5.6670952644811763e+00  5.7001220851048755e+00  5.7301133616366871e+00  5.7618368698628908e+00  5.7710216970237962e+00  5.7700378799551322e+00  5.7722006586126158e+00  2.3062938811013911e+01  2.3084719148608997e+01  2.3130020540830103e+01  2.3359597421495561e+01  2.3710065992384887e+01  2.4291183925520450e+01  2.4941536045609066e+01  2.5382450987865312e+01  2.5781059294478130e+01  2.6926741803179880e+01  2.7378795904546735e+01  2.7644595798565618e+01  2.7857961801027933e+01  2.7865489825951091e+01  2.7675914546667826e+01  2.7183390775241158e+01  2.6600314078899032e+01  2.5335255082169354e+01  2.4234353392181653e+01  2.2900444413072492e+01  2.0660443747118919e+01  1.9450897386702533e+01  1.8250664713417851e+01  1.6432107132098924e+01  1.4989710743196555e+01  1.3395357209316419e+01  1.1740314333199645e+01  1.0444718390568410e+01  8.9228191862223287e+00  8.0323583401861161e+00  7.1884415261191146e+00  6.2985255941958034e+00  5.8946027047215495e+00  5.5262575283737565e+00  5.2275371567476254e+00  5.1923742188884034e+00  5.1862191148967041e+00  5.2507449440607648e+00  5.3176312215155059e+00  5.3613395228430205e+00  5.5141948779790031e+00  5.6677629149764250e+00  5.7879163388776487e+00  5.8920014350700036e+00  5.9564944318879975e+00  5.9858053729091454e+00  6.0037652211280994e+00  6.0205921202690451e+00  6.0266517501980621e+00  2.4368286802041524e+01  2.4350149278196636e+01  2.4356399003727383e+01  2.4425820186062818e+01  2.4655866139155577e+01  2.5028939445013588e+01  2.5462453516426827e+01  2.5870504188634296e+01  2.6376078156222757e+01  2.7591906824675828e+01  2.7962805604131265e+01  2.8282057847612947e+01  2.8517712613126580e+01  2.8504908261091693e+01  2.8130131660818851e+01  2.7790938651054983e+01  2.7030263500876377e+01  2.6051647263206039e+01  2.4913408094635209e+01  2.3621882724765150e+01  2.1312295531848466e+01  1.9659895418166759e+01  1.8319111172965592e+01  1.6667949075805105e+01  1.5236853573711070e+01  1.3607996941241327e+01  1.2117841056548667e+01  1.0782143896776892e+01  9.0565670402755156e+00  8.1082497053279727e+00  7.2811846060455920e+00  6.3560647155295387e+00  5.9714362117413708e+00  5.6197397281325934e+00  5.2754143677789340e+00  5.2865882606163668e+00  5.3149571997790881e+00  5.4142055491959322e+00  5.5372042429863333e+00  5.8369573222997362e+00  6.2382221030150253e+00  6.4807993544896334e+00  6.6432053026368303e+00  6.7442642448005916e+00  6.7980363915887176e+00  6.8222591944736415e+00  6.8268733429360449e+00  6.8219624927037161e+00  6.8129879965966946e+00  2.5215255633833838e+01  2.5216282955469350e+01  2.5231115644279750e+01  2.5291019546737132e+01  2.5429484349524202e+01  2.5702704185694824e+01  2.6083665814375454e+01  2.6592177222238384e+01  2.7373323738511335e+01  2.8435906186165045e+01  2.8791389392454576e+01  2.9080064312012738e+01  2.9331550677686526e+01  2.9206054964290615e+01  2.8889380143823274e+01  2.8242165714806060e+01  2.7674010569573650e+01  2.6660898560456086e+01  2.5395487819720334e+01  2.4149217998172297e+01  2.2073561529199804e+01  2.0093278936864245e+01  1.8447013654412373e+01  1.6870168045128533e+01  1.5352851916025985e+01  1.3812991060658520e+01  1.2446779264861007e+01  1.1124104740329493e+01  9.3924129235316407e+00  8.2394723872408608e+00  7.3695997228611674e+00  6.4293671601232907e+00  6.0614740441866450e+00  5.7199021734783466e+00  5.3896671219787757e+00  5.4545039550927301e+00  5.5437401244514124e+00  5.7792498087345470e+00  6.0437400167912658e+00  6.4654403271356751e+00  6.8326436960121111e+00  7.0773661293029537e+00  7.2623983187810808e+00  7.3872371093483560e+00  7.4658055220698394e+00  7.5088903671174130e+00  7.5281730260450681e+00  7.5361164008292709e+00  7.5413960242750786e+00  2.5807701322390106e+01  2.5810233926320837e+01  2.5826335781326243e+01  2.5892058627901960e+01  2.6053929439134201e+01  2.6353045547894698e+01  2.6824318677523763e+01  2.7456165998593285e+01  2.8394844038622896e+01  2.9310239210562145e+01  2.9756491375048025e+01  3.0106602633391425e+01  3.0190267499586600e+01  3.0167040408041522e+01  2.9632734403914849e+01  2.9019173101339995e+01  2.8091493153776774e+01  2.7337643582011633e+01  2.6113728075587051e+01  2.4485333607328375e+01  2.2587090156901038e+01  2.1039783916085689e+01  1.8829174012074223e+01  1.7038439438084048e+01  1.5450716414408308e+01  1.3981130969775149e+01  1.2699181507638617e+01  1.1415172407210607e+01  9.9077601578520831e+00  8.4303134164093585e+00  7.4699991833761850e+00  6.5290101434411714e+00  6.1736796851869276e+00  5.8443529752728924e+00  5.5782212579383712e+00  5.6883248707864649e+00  5.8445418987424080e+00  6.2061599197195001e+00  6.5195908341204882e+00  6.9663139424895659e+00  7.3398347585919428e+00  7.6279856702242261e+00  7.8469571898962460e+00  8.0016075186946356e+00  8.1037586558026096e+00  8.1612540200064014e+00  8.1851520904235713e+00  8.1898147104335468e+00  8.1885218693805761e+00  2.6754376675987427e+01  2.6759201253596608e+01  2.6774538178126072e+01  2.6840985663952939e+01  2.7002126038534264e+01  2.7296530222502899e+01  2.7759912315656070e+01  2.8471007535994964e+01  2.9409345070172069e+01  3.0218454759906869e+01  3.0731171740764388e+01  3.1228728818092019e+01  3.1257226861056353e+01  3.0855695574780704e+01  3.0529493238879283e+01  2.9681693450380283e+01  2.8796605738519347e+01  2.7727026958381671e+01  2.6685725751679264e+01  2.4791372316212033e+01  2.2850751958411930e+01  2.1245500624892479e+01  1.9371250876918552e+01  1.7145222673671551e+01  1.5532439935800415e+01  1.4064141942395405e+01  1.2770828337718099e+01  1.1506192724726958e+01  1.0164478790605417e+01  8.7001995509266496e+00  7.5761337790300578e+00  6.6875734610950950e+00  6.3304133963067359e+00  6.0303607927759701e+00  5.8700032696481674e+00  6.0188821426808659e+00  6.2181887338564570e+00  6.6477738796171497e+00  7.0548575466693579e+00  7.7373507712238823e+00  8.2988030411467246e+00  8.6989013135262816e+00  8.9876123122455329e+00  9.1941359742076294e+00  9.3316613259066781e+00  9.4103704770461452e+00  9.4454579251554733e+00  9.4548945261711559e+00  9.4540209429146795e+00  2.7557387840451568e+01  2.7537155840274249e+01  2.7541542219266777e+01  2.7597004866221845e+01  2.7743892933840847e+01  2.8024748836471346e+01  2.8473737020667350e+01  2.9189602973547327e+01  3.0256148864119968e+01  3.0992573883967289e+01  3.1733848012988581e+01  3.2286459314186381e+01  3.2217427188026363e+01  3.1706256766551011e+01  3.1063754771526686e+01  3.0489368157650237e+01  2.9334699426608719e+01  2.8274733567294547e+01  2.6915944615202033e+01  2.5333664874780172e+01  2.3318430470756173e+01  2.1327957745557189e+01  1.9660225038203627e+01  1.7613334123324272e+01  1.5739886343963553e+01  1.4267840448057036e+01  1.2929363736061136e+01  1.1621410121679268e+01  1.0247016568948554e+01  8.8224692725951872e+00  7.7125044585232008e+00  6.9998894841773884e+00  6.5428777729005940e+00  6.2938562984749060e+00  6.2625236494034082e+00  6.4542534371441569e+00  6.7454457373759009e+00  7.2881939931346063e+00  7.7983480832553198e+00  8.5717198239897368e+00  9.1782993873976881e+00  9.6160852083689896e+00  9.9385661715542266e+00  1.0181793808313410e+01  1.0352507379869527e+01  1.0453877983309543e+01  1.0498321074902034e+01  1.0509236050163791e+01  1.0511068313142724e+01  2.7912108816750163e+01  2.7941842366204792e+01  2.7980397697588074e+01  2.8069475427652783e+01  2.8257770546534388e+01  2.8591484021600451e+01  2.9112175217649753e+01  2.9952682672720378e+01  3.1055394822303679e+01  3.1719556268584309e+01  3.2478679316227471e+01  3.3046078111989935e+01  3.2865375459023973e+01  3.2391522928600246e+01  3.1812474346867031e+01  3.0929359198509840e+01  3.0008991714720015e+01  2.8646489326545073e+01  2.7345060064677075e+01  2.5583549115953531e+01  2.3829206228667903e+01  2.1436554671438586e+01  1.9730871565221349e+01  1.8221618260903600e+01  1.6374595131153779e+01  1.4759184338074199e+01  1.3301601028691328e+01  1.1788985321247948e+01  1.0186065225878380e+01  8.8668406527107635e+00  7.8197934023983002e+00  7.3115047521592009e+00  6.8891913326057015e+00  6.8464081266471828e+00  7.0638123638631560e+00  7.1254012258772814e+00  7.6845674405620414e+00  8.4099046839672287e+00  8.8460920304067407e+00  9.6585171109824675e+00  1.0299937989179295e+01  1.0703669055147628e+01  1.1041481549869303e+01  1.1343382632065314e+01  1.1583701450576550e+01  1.1755207660181577e+01  1.1856201855707488e+01  1.1893453321033427e+01  1.1893069108243893e+01  2.9818031181968454e+01  2.9799088141518606e+01  2.9798187943602830e+01  2.9847501528721441e+01  2.9976791474557963e+01  3.0213107451384918e+01  3.0575169388907799e+01  3.1097300831472989e+01  3.1803789470255140e+01  3.2387695950615289e+01  3.3117652183228778e+01  3.3675716205343470e+01  3.3371491475221077e+01  3.3065071385783234e+01  3.2360870146711981e+01  3.1628251928594182e+01  3.0311105418166296e+01  2.9147412827493923e+01  2.7647793945446590e+01  2.6142250534938725e+01  2.3917423183441631e+01  2.1468885553659465e+01  1.9639271681293913e+01  1.8248048315430683e+01  1.6509221459084944e+01  1.4873570345140442e+01  1.3244344652627952e+01  1.1681666213263359e+01  1.0054710836474484e+01  8.9773764039983313e+00  7.9062293606011540e+00  7.5078638552831336e+00  7.2236548856209080e+00  7.4566415960294448e+00  7.8916777229637169e+00  8.2031125707878694e+00  8.8470008150749404e+00  9.4880779884524848e+00  1.0187881119708010e+01  1.1590706615805914e+01  1.2521410102059852e+01  1.3260642654821703e+01  1.3832817242158541e+01  1.4206205441267478e+01  1.4407756877266500e+01  1.4474650345889641e+01  1.4455874708864988e+01  1.4420267776534947e+01  1.4411709637051642e+01  3.0607877060912539e+01  3.0609727171540253e+01  3.0621264110416071e+01  3.0657068468891442e+01  3.0745416426104661e+01  3.0912864455090265e+01  3.1179327760390880e+01  3.1579115317158749e+01  3.2152163232468325e+01  3.2828787230257021e+01  3.3540147885306709e+01  3.3835015175370984e+01  3.3696570896299718e+01  3.3324648898511867e+01  3.2967185339807202e+01  3.2039043614217270e+01  3.0640857059352019e+01  2.9287350743415509e+01  2.8088100584964003e+01  2.6100907016071851e+01  2.3843616258248744e+01  2.1390139092003995e+01  1.9442306204295576e+01  1.8054135986500246e+01  1.6570324292373886e+01  1.4994864821933469e+01  1.3207292943358697e+01  1.1548428871291673e+01  1.0036307065966341e+01  9.0534246178278472e+00  8.0241859081947773e+00  7.6827808644379036e+00  7.4790467250513286e+00  7.9898720660333122e+00  8.5259587444054539e+00  8.9293344912898593e+00  9.7122712701761724e+00  1.0369523833385387e+01  1.1172394139638396e+01  1.2749705678923499e+01  1.3873172020482246e+01  1.4653764576029287e+01  1.5208678110884030e+01  1.5577682206229037e+01  1.5806894075167254e+01  1.5934434344382392e+01  1.5998392812659370e+01  1.6027579608969727e+01  1.6039513201178650e+01  3.1190124214039450e+01  3.1194750918636437e+01  3.1204317200952225e+01  3.1238128755595195e+01  3.1318240875582525e+01  3.1463856678545444e+01  3.1695492093439125e+01  3.2034567502261446e+01  3.2566974940090496e+01  3.3158254888719277e+01  3.3726797657551408e+01  3.3962720252545246e+01  3.3756281303624945e+01  3.3408449034476583e+01  3.3011384682466840e+01  3.2344774431388885e+01  3.0565058475868884e+01  2.9323887364216574e+01  2.7875263989923706e+01  2.5745121856391371e+01  2.3578347796367581e+01  2.1382263528225415e+01  1.9260110972694633e+01  1.7884045060447303e+01  1.6582304227893740e+01  1.4873866396058141e+01  1.3120996447154925e+01  1.1383251882944304e+01  1.0012140022051998e+01  9.0430267796429380e+00  8.1567629120340435e+00  7.8782698682825645e+00  7.7391569354104686e+00  8.5224340828632972e+00  9.1276634251244246e+00  9.5954375082888603e+00  1.0512434289604045e+01  1.1267382009567754e+01  1.2046459767251005e+01  1.3767035100922824e+01  1.5067509220305887e+01  1.5911184596282361e+01  1.6522493437362510e+01  1.6937574585160757e+01  1.7193708918519722e+01  1.7330221272672873e+01  1.7383585140085863e+01  1.7390139589484779e+01  1.7379808568827244e+01  3.2204791431509818e+01  3.2199142631408918e+01  3.2200194457925193e+01  3.2217821530240563e+01  3.2264567291682674e+01  3.2352853670247917e+01  3.2492831930306600e+01  3.2693609476741109e+01  3.3019552901362708e+01  3.3467043577747944e+01  3.3750131845466306e+01  3.3746851222590784e+01  3.3501336550706931e+01  3.3160899712030655e+01  3.2730535660215345e+01  3.1899061925514989e+01  3.0324375298722032e+01  2.8986149291149612e+01  2.7376604411546509e+01  2.5321513838069592e+01  2.3286619682266888e+01  2.1261877993314481e+01  1.9165361980279027e+01  1.7748638049427949e+01  1.6395590749552397e+01  1.4570012523800948e+01  1.2858854897519601e+01  1.1216890092083906e+01  9.9594740997642521e+00  9.0348680265501180e+00  8.3282970751392629e+00  8.1043108347841990e+00  8.0187485819306552e+00  9.0604104116737858e+00  9.7387039861032729e+00  1.0271649971930929e+01  1.1319672094302170e+01  1.2173284420220551e+01  1.3120708055732367e+01  1.5339442599064402e+01  1.6767322644905605e+01  1.7668692311618599e+01  1.8298369979950241e+01  1.8724401932532597e+01  1.9001771997849719e+01  1.9162045229494240e+01  1.9235934216428355e+01  1.9260387721166392e+01  1.9270306854763220e+01  3.2943747142992194e+01  3.2950022476148376e+01  3.2956323094344796e+01  3.2966942631204603e+01  3.2988885188671787e+01  3.3030382642306286e+01  3.3102148235462458e+01  3.3225178093968672e+01  3.3410823065922386e+01  3.3590841615888110e+01  3.3549717202295120e+01  3.3313959750110605e+01  3.3008611521604251e+01  3.2635957896759955e+01  3.2082228092155347e+01  3.1077078981768622e+01  2.9663345126467451e+01  2.8309876582295857e+01  2.6801240395730371e+01  2.4845028724268822e+01  2.2838272630995387e+01  2.0615902890108423e+01  1.8473682040307185e+01  1.7002284602402923e+01  1.5695623301411299e+01  1.4125583817709552e+01  1.2516272399034611e+01  1.0993267774199833e+01  9.8636507075984632e+00  9.0719455688227395e+00  8.6042305109472377e+00  8.4637388610338533e+00  8.4605692224005171e+00  9.5878052587669256e+00  1.0361172486999164e+01  1.0968883767448322e+01  1.2143245615461973e+01  1.3079680547183616e+01  1.4170309235938003e+01  1.6847228800312781e+01  1.8084213357318703e+01  1.8892417688116669e+01  1.9490785806191273e+01  1.9908801183984501e+01  2.0190528953022625e+01  2.0347690895581984e+01  2.0412464165092661e+01  2.0425038928732452e+01  2.0419855668368179e+01  3.3779659207169317e+01  3.3770066051975704e+01  3.3761266003222488e+01  3.3749548493032442e+01  3.3732985813785866e+01  3.3712103801727800e+01  3.3705408461610645e+01  3.3717003550433695e+01  3.3702185933595707e+01  3.3586184194921287e+01  3.3276689941438121e+01  3.2927243069084199e+01  3.2560438957660018e+01  3.2112479701611420e+01  3.1445272777368459e+01  3.0384601545304434e+01  2.8996868848079366e+01  2.7636175878558650e+01  2.6185822657173475e+01  2.4198015673152778e+01  2.1782191111277797e+01  1.9607849487310812e+01  1.7847209089714532e+01  1.6519440498556719e+01  1.5296543682066254e+01  1.3707548232004491e+01  1.2086004705872053e+01  1.0788489340422901e+01  9.6578420727696823e+00  9.1965115581731833e+00  8.9033758610709892e+00  8.8534937439054122e+00  9.0535961518405674e+00  1.0075001064966640e+01  1.0971784675397753e+01  1.1686127695433971e+01  1.2982405967323219e+01  1.3989062681586717e+01  1.5174596587389287e+01  1.8132926859320428e+01  1.9323629766012587e+01  2.0182190304902367e+01  2.1177246103945894e+01  2.1871182542839794e+01  2.2241254740065592e+01  2.2434163976971316e+01  2.2513585814095361e+01  2.2533881539041396e+01  2.2535415487714523e+01  3.5479598919654123e+01  3.5488045855467796e+01  3.5481074884203245e+01  3.5433871809250952e+01  3.5329024345819889e+01  3.5139149105367494e+01  3.4855617389021084e+01  3.4408651919769966e+01  3.3893446527723675e+01  3.3404182203547343e+01  3.2803863057503001e+01  3.2243661357784539e+01  3.1737636942754914e+01  3.1169877205256345e+01  3.0457037866505534e+01  2.9466897314258649e+01  2.8161123230856436e+01  2.6848695244982615e+01  2.5099524759158207e+01  2.2822658538942083e+01  2.0562599864182296e+01  1.8793966596618674e+01  1.7361983788419440e+01  1.6110714247693473e+01  1.4845006098605497e+01  1.3117001658572294e+01  1.1604212600205294e+01  1.0594215097412464e+01  9.5548819164365604e+00  9.3385767217667190e+00  9.2265853546788819e+00  9.3297977346091994e+00  9.6747971307288889e+00  1.0497464262344979e+01  1.1580202078099624e+01  1.2431015410572003e+01  1.3846377409646800e+01  1.4918507939671281e+01  1.6165865717446419e+01  1.9325661327198734e+01  2.0629041510892559e+01  2.1533645142204531e+01  2.2750941394955863e+01  2.3625234874648992e+01  2.4080671403421679e+01  2.4322538274302470e+01  2.4420985673505488e+01  2.4439593861495023e+01  2.4432760025338066e+01  3.6032482577291319e+01  3.6037136693612332e+01  3.6024574959245641e+01  3.5973080786390526e+01  3.5830690761692651e+01  3.5577373242487781e+01  3.5225470840383615e+01  3.4629443982009583e+01  3.3815963971882738e+01  3.3045495046699031e+01  3.2145206201917595e+01  3.1434802205087202e+01  3.0817565540088360e+01  3.0192054491485965e+01  2.9341019532342312e+01  2.7699157037269494e+01  2.5986429139752357e+01  2.4805703082159283e+01  2.2888407952208059e+01  2.0927414059910010e+01  1.9456934103311927e+01  1.8015517459326851e+01  1.6732333554729600e+01  1.5466138711440397e+01  1.4058553018849365e+01  1.2357708809403524e+01  1.1184814944033585e+01  1.0398557340131104e+01  9.5553315507209700e+00  9.5231172361470300e+00  9.5287825497113712e+00  9.8356609713129100e+00  1.0317830672272581e+01  1.0973598205667455e+01  1.2216274207412610e+01  1.3223469607735748e+01  1.4760575524441796e+01  1.5882520273622921e+01  1.7181282438786603e+01  2.0571754956844199e+01  2.1918522164706104e+01  2.2933099374281902e+01  2.4435796331341827e+01  2.5618778422096870e+01  2.6256343431054773e+01  2.6550729284547391e+01  2.6664606748806509e+01  2.6693856119662659e+01  2.6702918730450673e+01  3.6801048873973613e+01  3.6793444718085944e+01  3.6766212411408084e+01  3.6677580136083996e+01  3.6431227925437867e+01  3.6076042565997440e+01  3.5505475267374180e+01  3.4586205800279373e+01  3.3320096305863416e+01  3.2465092932186373e+01  3.1347527819993385e+01  3.0393512593951524e+01  2.9403593385527220e+01  2.8532291123161585e+01  2.7673116609824113e+01  2.5999971042809111e+01  2.4492919569677461e+01  2.3099212467875976e+01  2.1352492531597473e+01  1.9912860034046140e+01  1.8642305787542362e+01  1.7337204136310589e+01  1.6204818094130918e+01  1.4895537802367198e+01  1.3350747340942414e+01  1.1797538351641277e+01  1.0872231129099672e+01  1.0207354359413337e+01  9.6267961642037019e+00  9.7383211579961468e+00  9.8612525880987469e+00  1.0336749872721194e+01  1.0952892403077820e+01  1.1537033885232249e+01  1.2955843992100437e+01  1.4221672055986133e+01  1.5750897597445537e+01  1.6879702407676483e+01  1.8226940698903700e+01  2.1782077339378482e+01  2.3138692262916607e+01  2.4182553197019853e+01  2.5829400289164859e+01  2.6870851631504145e+01  2.7419634186412662e+01  2.769392262