<?xml version="1.0"?>
<VTKFile type="UnstructuredGrid"  version="0.1"  >
<UnstructuredGrid>
<Piece  NumberOfPoints="2401" NumberOfCells="4608">
<Points>
<DataArray  type="Float64"  NumberOfComponents="3"  format="ascii">0 0 0  0.001070538380698371 0 0  0.004277569313095364 0 0  0.009607359798386061 0 0  0.01703708685546806 0 0  0.02653493525245065 0 0  0.03806023374436157 0 0  0.05156362923366253 0 0  0.06698729810778931 0 0  0.08426519384873815 0 0  0.1033233298543955 0 0  0.1240800962605269 0 0  0.1464466094067445 0 0  0.1703270924499866 0 0  0.1956192854956637 0 0  0.2222148834902257 0 0  0.2500000000000299 0 0  0.2788556548905322 0 0  0.308658283817491 0 0  0.339280267348458 0 0  0.3705904774487813 0 0  0.4024548389919803 0 0  0.4347369038900211 0 0  0.467298435384978 0 0  0.5000000000000517 0 0  0.5327015646151253 0 0  0.5652630961100813 0 0  0.5975451610081212 0 0  0.6294095225513188 0 0  0.6607197326516399 0 0  0.6913417161826045 0 0  0.7211443451095605 0 0  0.7500000000000597 0 0  0.7777851165098603 0 0  0.8043807145044185 0 0  0.829672907550091 0 0  0.8535533905933287 0 0  0.8759199037395413 0 0  0.8966766701456674 0 0  0.9157348061513193 0 0  0.9330127018922625 0 0  0.9484363707663832 0 0  0.961939766255678 0 0  0.9734650647475827 0 0  0.9829629131445586 0 0  0.9903926402016341 0 0  0.9957224306869181 0 0  0.9989294616193084 0 0  1 0 0  0 0.02083333333333333 0  0.001070538380698371 0.02083333333333333 0  0.004277569313095364 0.02083333333333333 0  0.009607359798386061 0.02083333333333333 0  0.01703708685546806 0.02083333333333333 0  0.02653493525245065 0.02083333333333333 0  0.03806023374436157 0.02083333333333333 0  0.05156362923366253 0.02083333333333333 0  0.06698729810778931 0.02083333333333333 0  0.08426519384873815 0.02083333333333333 0  0.1033233298543955 0.02083333333333333 0  0.1240800962605269 0.02083333333333333 0  0.1464466094067445 0.02083333333333333 0  0.1703270924499866 0.02083333333333333 0  0.1956192854956637 0.02083333333333333 0  0.2222148834902257 0.02083333333333333 0  0.2500000000000299 0.02083333333333333 0  0.2788556548905322 0.02083333333333333 0  0.308658283817491 0.02083333333333333 0  0.339280267348458 0.02083333333333333 0  0.3705904774487813 0.02083333333333333 0  0.4024548389919803 0.02083333333333333 0  0.4347369038900211 0.02083333333333333 0  0.467298435384978 0.02083333333333333 0  0.5000000000000517 0.02083333333333333 0  0.5327015646151253 0.02083333333333333 0  0.5652630961100813 0.02083333333333333 0  0.5975451610081212 0.02083333333333333 0  0.6294095225513188 0.02083333333333333 0  0.6607197326516399 0.02083333333333333 0  0.6913417161826045 0.02083333333333333 0  0.7211443451095605 0.02083333333333333 0  0.7500000000000597 0.02083333333333333 0  0.7777851165098603 0.02083333333333333 0  0.8043807145044185 0.02083333333333333 0  0.829672907550091 0.02083333333333333 0  0.8535533905933287 0.02083333333333333 0  0.8759199037395413 0.02083333333333333 0  0.8966766701456674 0.02083333333333333 0  0.9157348061513193 0.02083333333333333 0  0.9330127018922625 0.02083333333333333 0  0.9484363707663832 0.02083333333333333 0  0.961939766255678 0.02083333333333333 0  0.9734650647475827 0.02083333333333333 0  0.9829629131445586 0.02083333333333333 0  0.9903926402016341 0.02083333333333333 0  0.9957224306869181 0.02083333333333333 0  0.9989294616193084 0.02083333333333333 0  1 0.02083333333333333 0  0 0.04166666666666666 0  0.001070538380698371 0.04166666666666666 0  0.004277569313095364 0.04166666666666666 0  0.009607359798386061 0.04166666666666666 0  0.01703708685546806 0.04166666666666666 0  0.02653493525245065 0.04166666666666666 0  0.03806023374436157 0.04166666666666666 0  0.05156362923366253 0.04166666666666666 0  0.06698729810778931 0.04166666666666666 0  0.08426519384873815 0.04166666666666666 0  0.1033233298543955 0.04166666666666666 0  0.1240800962605269 0.04166666666666666 0  0.1464466094067445 0.04166666666666666 0  0.1703270924499866 0.04166666666666666 0  0.1956192854956637 0.04166666666666666 0  0.2222148834902257 0.04166666666666666 0  0.2500000000000299 0.04166666666666666 0  0.2788556548905322 0.04166666666666666 0  0.308658283817491 0.04166666666666666 0  0.339280267348458 0.04166666666666666 0  0.3705904774487813 0.04166666666666666 0  0.4024548389919803 0.04166666666666666 0  0.4347369038900211 0.04166666666666666 0  0.467298435384978 0.04166666666666666 0  0.5000000000000517 0.04166666666666666 0  0.5327015646151253 0.04166666666666666 0  0.5652630961100813 0.04166666666666666 0  0.5975451610081212 0.04166666666666666 0  0.6294095225513188 0.04166666666666666 0  0.6607197326516399 0.04166666666666666 0  0.6913417161826045 0.04166666666666666 0  0.7211443451095605 0.04166666666666666 0  0.7500000000000597 0.04166666666666666 0  0.7777851165098603 0.04166666666666666 0  0.8043807145044185 0.04166666666666666 0  0.829672907550091 0.04166666666666666 0  0.8535533905933287 0.04166666666666666 0  0.8759199037395413 0.04166666666666666 0  0.8966766701456674 0.04166666666666666 0  0.9157348061513193 0.04166666666666666 0  0.9330127018922625 0.04166666666666666 0  0.9484363707663832 0.04166666666666666 0  0.961939766255678 0.04166666666666666 0  0.9734650647475827 0.04166666666666666 0  0.9829629131445586 0.04166666666666666 0  0.9903926402016341 0.04166666666666666 0  0.9957224306869181 0.04166666666666666 0  0.9989294616193084 0.04166666666666666 0  1 0.04166666666666666 0  0 0.0625 0  0.001070538380698371 0.0625 0  0.004277569313095364 0.0625 0  0.009607359798386061 0.0625 0  0.01703708685546806 0.0625 0  0.02653493525245065 0.0625 0  0.03806023374436157 0.0625 0  0.05156362923366253 0.0625 0  0.06698729810778931 0.0625 0  0.08426519384873815 0.0625 0  0.1033233298543955 0.0625 0  0.1240800962605269 0.0625 0  0.1464466094067445 0.0625 0  0.1703270924499866 0.0625 0  0.1956192854956637 0.0625 0  0.2222148834902257 0.0625 0  0.2500000000000299 0.0625 0  0.2788556548905322 0.0625 0  0.308658283817491 0.0625 0  0.339280267348458 0.0625 0  0.3705904774487813 0.0625 0  0.4024548389919803 0.0625 0  0.4347369038900211 0.0625 0  0.467298435384978 0.0625 0  0.5000000000000517 0.0625 0  0.5327015646151253 0.0625 0  0.5652630961100813 0.0625 0  0.5975451610081212 0.0625 0  0.6294095225513188 0.0625 0  0.6607197326516399 0.0625 0  0.6913417161826045 0.0625 0  0.7211443451095605 0.0625 0  0.7500000000000597 0.0625 0  0.7777851165098603 0.0625 0  0.8043807145044185 0.0625 0  0.829672907550091 0.0625 0  0.8535533905933287 0.0625 0  0.8759199037395413 0.0625 0  0.8966766701456674 0.0625 0  0.9157348061513193 0.0625 0  0.9330127018922625 0.0625 0  0.9484363707663832 0.0625 0  0.961939766255678 0.0625 0  0.9734650647475827 0.0625 0  0.9829629131445586 0.0625 0  0.9903926402016341 0.0625 0  0.9957224306869181 0.0625 0  0.9989294616193084 0.0625 0  1 0.0625 0  0 0.08333333333333333 0  0.001070538380698371 0.08333333333333333 0  0.004277569313095364 0.08333333333333333 0  0.009607359798386061 0.08333333333333333 0  0.01703708685546806 0.08333333333333333 0  0.02653493525245065 0.08333333333333333 0  0.03806023374436157 0.08333333333333333 0  0.05156362923366253 0.08333333333333333 0  0.06698729810778931 0.08333333333333333 0  0.08426519384873815 0.08333333333333333 0  0.1033233298543955 0.08333333333333333 0  0.1240800962605269 0.08333333333333333 0  0.1464466094067445 0.08333333333333333 0  0.1703270924499866 0.08333333333333333 0  0.1956192854956637 0.08333333333333333 0  0.2222148834902257 0.08333333333333333 0  0.2500000000000299 0.08333333333333333 0  0.2788556548905322 0.08333333333333333 0  0.308658283817491 0.08333333333333333 0  0.339280267348458 0.08333333333333333 0  0.3705904774487813 0.08333333333333333 0  0.4024548389919803 0.08333333333333333 0  0.4347369038900211 0.08333333333333333 0  0.467298435384978 0.08333333333333333 0  0.5000000000000517 0.08333333333333333 0  0.5327015646151253 0.08333333333333333 0  0.5652630961100813 0.08333333333333333 0  0.5975451610081212 0.08333333333333333 0  0.6294095225513188 0.08333333333333333 0  0.6607197326516399 0.08333333333333333 0  0.6913417161826045 0.08333333333333333 0  0.7211443451095605 0.08333333333333333 0  0.7500000000000597 0.08333333333333333 0  0.7777851165098603 0.08333333333333333 0  0.8043807145044185 0.08333333333333333 0  0.829672907550091 0.08333333333333333 0  0.8535533905933287 0.08333333333333333 0  0.8759199037395413 0.08333333333333333 0  0.8966766701456674 0.08333333333333333 0  0.9157348061513193 0.08333333333333333 0  0.9330127018922625 0.08333333333333333 0  0.9484363707663832 0.08333333333333333 0  0.961939766255678 0.08333333333333333 0  0.9734650647475827 0.08333333333333333 0  0.9829629131445586 0.08333333333333333 0  0.9903926402016341 0.08333333333333333 0  0.9957224306869181 0.08333333333333333 0  0.9989294616193084 0.08333333333333333 0  1 0.08333333333333333 0  0 0.1041666666666667 0  0.001070538380698371 0.1041666666666667 0  0.004277569313095364 0.1041666666666667 0  0.009607359798386061 0.1041666666666667 0  0.01703708685546806 0.1041666666666667 0  0.02653493525245065 0.1041666666666667 0  0.03806023374436157 0.1041666666666667 0  0.05156362923366253 0.1041666666666667 0  0.06698729810778931 0.1041666666666667 0  0.08426519384873815 0.1041666666666667 0  0.1033233298543955 0.1041666666666667 0  0.1240800962605269 0.1041666666666667 0  0.1464466094067445 0.1041666666666667 0  0.1703270924499866 0.1041666666666667 0  0.1956192854956637 0.1041666666666667 0  0.2222148834902257 0.1041666666666667 0  0.2500000000000299 0.1041666666666667 0  0.2788556548905322 0.1041666666666667 0  0.308658283817491 0.1041666666666667 0  0.339280267348458 0.1041666666666667 0  0.3705904774487813 0.1041666666666667 0  0.4024548389919803 0.1041666666666667 0  0.4347369038900211 0.1041666666666667 0  0.467298435384978 0.1041666666666667 0  0.5000000000000517 0.1041666666666667 0  0.5327015646151253 0.1041666666666667 0  0.5652630961100813 0.1041666666666667 0  0.5975451610081212 0.1041666666666667 0  0.62
[...]
<PointData  Scalars="f_831517"> 
<DataArray  type="Float64"  Name="f_831517"  format="ascii">-6.9787105385421917e+00  -6.9799409836854869e+00  -7.0217103459699892e+00  -7.0954918620282665e+00  -7.2907474089035578e+00  -7.7596632466534778e+00  -8.3860917200544165e+00  -8.8656690432155489e+00  -9.6449501247398608e+00  -1.0953203903010392e+01  -1.1903203481524745e+01  -1.2811059495018759e+01  -1.4260453546977667e+01  -1.5236587264294563e+01  -1.6374733675998851e+01  -1.6867802956293573e+01  -1.7665364528131782e+01  -1.8682224176542164e+01  -1.9119077572094699e+01  -1.9618452641944028e+01  -1.9677498449216372e+01  -1.9307756965712070e+01  -1.9005956508380557e+01  -1.8158393988980617e+01  -1.7270994802760384e+01  -1.6119990807085475e+01  -1.4534887854646376e+01  -1.2888884893770150e+01  -1.0895441370027505e+01  -9.2299817208491355e+00  -7.4977749979836021e+00  -5.4590432175961654e+00  -4.1224979525480538e+00  -2.8340635776490144e+00  -1.0864634544850538e+00  -1.2183344233843497e-01  7.0086613043838275e-01  1.8146656379889390e+00  2.3750802041131145e+00  2.8770941842658972e+00  3.5751661622553521e+00  4.0363605747150757e+00  4.2980199454894308e+00  4.4765425270332919e+00  4.6114085995963352e+00  4.6865973385225379e+00  4.7082647917305049e+00  4.7099456932536174e+00  4.7136048131926680e+00  -6.6696421271732031e+00  -6.6715859883198050e+00  -6.7156684163338207e+00  -6.9032254152367321e+00  -7.1075472841243537e+00  -7.5313542920326970e+00  -8.1346992456890082e+00  -8.6137724951184182e+00  -9.2313144160199947e+00  -1.0985745279196431e+01  -1.1719014811618450e+01  -1.2580640748099352e+01  -1.3921555791201198e+01  -1.4983877467361499e+01  -1.5859811252155966e+01  -1.6624002955197454e+01  -1.7243635095909838e+01  -1.8262481385677901e+01  -1.8818553661610121e+01  -1.9439407291053161e+01  -1.9609084963660223e+01  -1.9180204252259397e+01  -1.8768179394127927e+01  -1.7918703199442056e+01  -1.7051809354562749e+01  -1.5868305185130421e+01  -1.4260494189247057e+01  -1.2764850402341350e+01  -1.0598131067406605e+01  -8.9637560059176451e+00  -7.3741370967894388e+00  -5.2833520797669289e+00  -4.0063868258893152e+00  -2.8269543631453993e+00  -9.6629779137839678e-01  2.6923394699061264e-02  8.6194109132185925e-01  1.9393361934315760e+00  2.4871998757289222e+00  2.9752324603682738e+00  3.7761447052809269e+00  4.2361052844311926e+00  4.5530301538467972e+00  4.7898713802492034e+00  4.9250729168376495e+00  4.9838636407044863e+00  5.0068371232997224e+00  5.0251063166285928e+00  5.0304796258868612e+00  -6.0099480096896922e+00  -6.0091123710736811e+00  -6.0242758445692957e+00  -6.1054479018949177e+00  -6.3947228944009806e+00  -6.8391641419573226e+00  -7.4170669072649469e+00  -8.0184074369723248e+00  -8.7017836052873268e+00  -1.0558779120596496e+01  -1.1306498493174463e+01  -1.2148789850521815e+01  -1.3317443998549543e+01  -1.4287782688694120e+01  -1.5280114754413374e+01  -1.5757248825303945e+01  -1.6519751956132417e+01  -1.7194072127606407e+01  -1.7777748344672748e+01  -1.8324159227219223e+01  -1.8891579358438463e+01  -1.8531120183018825e+01  -1.7875792717935891e+01  -1.6953415724335699e+01  -1.6018652828216290e+01  -1.4786202058534300e+01  -1.3479628170497682e+01  -1.2234843329940690e+01  -1.0134233775379034e+01  -8.5939594844071241e+00  -7.0826027120041584e+00  -4.9599565563265395e+00  -3.7794255082613639e+00  -2.7305037317032315e+00  -5.8589980911108597e-01  4.0704285563782217e-01  1.2913486316718403e+00  2.3185286036162176e+00  3.0174287673586111e+00  3.9420684409653268e+00  4.9154327385828456e+00  5.3507844159277536e+00  5.6487501689681210e+00  5.8204167192499980e+00  5.9079232221290328e+00  5.9470828807575966e+00  5.9552682809199711e+00  5.9499307759470712e+00  5.9401803038241825e+00  -5.4929514376887703e+00  -5.4956897507287898e+00  -5.5078165150197309e+00  -5.5579343639573713e+00  -5.6778644306118542e+00  -5.9826732044287620e+00  -6.4260346581617851e+00  -7.1238587783174490e+00  -8.0282119414801851e+00  -9.4790962928900697e+00  -1.0464402437357883e+01  -1.1544150072422671e+01  -1.2533450756155283e+01  -1.3514360777118954e+01  -1.4264469684989034e+01  -1.5069872710457789e+01  -1.5469098632311360e+01  -1.6197190918312057e+01  -1.6939326843910820e+01  -1.7321016484363010e+01  -1.7622405460383987e+01  -1.7520089999169304e+01  -1.6826858441201821e+01  -1.5942651769369764e+01  -1.5006526550035906e+01  -1.3869398454558167e+01  -1.2824481403516090e+01  -1.1656494679161039e+01  -9.8265169416491904e+00  -8.2387149315806596e+00  -6.7076371849115182e+00  -4.5994072634008312e+00  -3.4773700215024053e+00  -2.4188196231666539e+00  -1.2444409531417844e-01  9.0922328601834546e-01  1.8777048799302745e+00  3.0320519219225117e+00  3.9279520233196501e+00  4.9726884696498619e+00  5.6521865330968701e+00  6.0426706710537479e+00  6.3333114379750137e+00  6.5117527243769979e+00  6.6222793062756242e+00  6.6807297272139978e+00  6.7056583674030827e+00  6.7151447292712980e+00  6.7208997123291168e+00  -4.8804926790475340e+00  -4.8789955065439647e+00  -4.8858228203264904e+00  -4.9217023517300431e+00  -5.0207506972261058e+00  -5.2151447304377792e+00  -5.5663207183865246e+00  -6.0636211223402352e+00  -7.0154217833310133e+00  -8.4022671485007319e+00  -9.3197513807723134e+00  -1.0416133805361952e+01  -1.1771833735120781e+01  -1.2311860451914020e+01  -1.3225927272774589e+01  -1.3902787441109940e+01  -1.4672092577338006e+01  -1.4992143929964874e+01  -1.5614831981373239e+01  -1.5904411877241783e+01  -1.5602959593997006e+01  -1.5452648901888395e+01  -1.5439934530587925e+01  -1.4806228528290127e+01  -1.4033247786293998e+01  -1.3120256734632832e+01  -1.2177916926171227e+01  -1.1043163669682381e+01  -9.5425707410488769e+00  -7.8568756384592033e+00  -6.2415265093431467e+00  -4.1630286466656656e+00  -3.0534916757220385e+00  -1.9293336833227666e+00  3.8575485975366147e-01  1.4773197910512310e+00  2.5354069566653714e+00  3.8065192236433862e+00  4.6415983541351773e+00  5.6207780521878208e+00  6.2468180237578386e+00  6.6748316361261297e+00  6.9694783318276992e+00  7.1629431552600984e+00  7.2869361988960151e+00  7.3539326024770455e+00  7.3813162468530438e+00  7.3860332368377692e+00  7.3834579262630102e+00  -3.7941797330585376e+00  -3.7955695978851676e+00  -3.8053208532670162e+00  -3.8433527669079677e+00  -3.9379814254277123e+00  -4.1276754927290584e+00  -4.4694886873576580e+00  -5.0427984993792139e+00  -5.7728912320751791e+00  -6.8342490259075790e+00  -8.1347046668627048e+00  -9.1412312776910714e+00  -1.0486107902956027e+01  -1.1375859825529579e+01  -1.1834093900143575e+01  -1.2788056781681155e+01  -1.3428036368755832e+01  -1.4035851733046641e+01  -1.4187039783074958e+01  -1.4561877654977136e+01  -1.4648076349332019e+01  -1.4539498592843861e+01  -1.4326409232443597e+01  -1.4093960589245171e+01  -1.3516046802092918e+01  -1.2739325378097655e+01  -1.1827877431228021e+01  -1.0703824403702182e+01  -9.2843104002495309e+00  -7.4798803185738558e+00  -5.5900153533356205e+00  -3.6212258051153690e+00  -2.4981931665500063e+00  -1.2703954814583052e+00  9.9350285477074041e-01  2.1035343997434288e+00  3.2111417869673176e+00  4.5175084100428675e+00  5.3805911748167352e+00  6.5331279111609808e+00  7.3029950955872387e+00  7.7877841834772230e+00  8.1065116080508712e+00  8.3233023676717437e+00  8.4624413649817161e+00  8.5397721595017853e+00  8.5737302033373233e+00  8.5829851463722147e+00  8.5832402174779787e+00  -2.9700402502970693e+00  -2.9703259846387762e+00  -2.9764859316552190e+00  -3.0076361815046586e+00  -3.0907916467162138e+00  -3.2572686152432584e+00  -3.5413377374653217e+00  -4.0449926789498853e+00  -4.8661614845783054e+00  -5.4678879170256325e+00  -6.4959651202894486e+00  -7.8786517573696129e+00  -8.9411325890838587e+00  -9.9692628713436466e+00  -1.0850026313101717e+01  -1.1352288205085879e+01  -1.2295489297717413e+01  -1.2724413029656034e+01  -1.3110598885484919e+01  -1.3259828766052349e+01  -1.3718160219883950e+01  -1.3713256125539880e+01  -1.3289520232560042e+01  -1.3231315073770052e+01  -1.3042842484102273e+01  -1.2345282141692834e+01  -1.1435719742592706e+01  -1.0313639579678638e+01  -8.7758679068555914e+00  -6.7292546180271602e+00  -4.5967166471956187e+00  -2.9448404072794920e+00  -1.8492417288040592e+00  -4.4962226474416417e-01  1.6317819190246112e+00  2.7781424452505870e+00  3.9971588037182992e+00  5.3836814183303270e+00  6.3305424564262909e+00  7.4735605206573581e+00  8.1935603839912705e+00  8.6572859914994496e+00  8.9760433462213811e+00  9.2053799919398962e+00  9.3605064614928377e+00  9.4508243279884390e+00  9.4901370181422049e+00  9.4997560200657158e+00  9.5008270488217690e+00  -2.0930319011026008e+00  -2.0960111424512342e+00  -2.1068230370346708e+00  -2.1437174858675689e+00  -2.2344467400599761e+00  -2.4090527731099614e+00  -2.6779243853066506e+00  -3.1543759562706510e+00  -3.8662392063184066e+00  -4.4282214046796184e+00  -5.0484649849697218e+00  -6.8217828140418364e+00  -7.5419069644966887e+00  -8.5245931883940962e+00  -9.3354518737416274e+00  -1.0350709275388514e+01  -1.0802494310375760e+01  -1.1473570427380878e+01  -1.1731397722366285e+01  -1.2323060611619992e+01  -1.2442758679300683e+01  -1.2320718073005095e+01  -1.1889493744086353e+01  -1.1486953777636280e+01  -1.1195365870049857e+01  -1.0673409527319109e+01  -9.9300915726465480e+00  -8.9052877447004253e+00  -7.2303043208479307e+00  -5.5606415509402138e+00  -3.6825082203232671e+00  -2.2417929826613228e+00  -1.0977563950328546e+00  9.3351003513656627e-01  2.5760446729397688e+00  3.6445793538603453e+00  5.2041665930152563e+00  6.6197187956894554e+00  7.5149558986857965e+00  8.6070526135488254e+00  9.2636634621813592e+00  9.6488560174233662e+00  9.9465828634895548e+00  1.0198866520223293e+01  1.0391896373214587e+01  1.0525087700488314e+01  1.0600435951596117e+01  1.0626194770501135e+01  1.0623901811083535e+01  7.4755724652950967e-02  8.1278112786928383e-02  7.2240049070622744e-02  3.0583849407767569e-02  -6.3455306132544034e-02  -2.4185674307264024e-01  -5.5376568987370667e-01  -1.1056939870994373e+00  -2.2376785629137088e+00  -3.1110247002394349e+00  -3.9387691200410457e+00  -4.6502625724405684e+00  -6.0397208292855620e+00  -6.6043448455394556e+00  -7.8924206604936966e+00  -8.6975376766178787e+00  -9.5049726348611330e+00  -9.6650240852759879e+00  -1.0465973006612394e+01  -1.0822718083396051e+01  -1.1192845984496962e+01  -1.0778394424766944e+01  -1.0581312354429686e+01  -1.0064367000743962e+01  -9.6657180759576775e+00  -9.4138925142743339e+00  -8.8074234314160105e+00  -7.6834743009275215e+00  -6.1576714353084787e+00  -4.8803335593844208e+00  -3.0187310720448179e+00  -1.5882828691358215e+00  -4.2547742740830974e-01  2.2866392877841379e+00  3.6174000598050284e+00  4.7407046331423803e+00  6.4309560051607004e+00  7.5793946062116522e+00  8.6622338812417379e+00  1.0224045611692215e+01  1.1002193114370174e+01  1.1583940164589533e+01  1.2006982118467535e+01  1.2271725617520465e+01  1.2411253137123781e+01  1.2457022314274525e+01  1.2443346539433463e+01  1.2418646572828647e+01  1.2414890389883283e+01  8.4600895561893330e-01  8.4054194432601081e-01  8.3128272254269764e-01  8.0273518185444126e-01  7.3085594780535723e-01  5.8827156364278221e-01  3.3761252749413456e-01  -8.4411135233553938e-02  -6.9835167387151897e-01  -1.5643782201476255e+00  -2.7680486688370336e+00  -3.7639365940874696e+00  -4.4085554162148615e+00  -5.2673016046362653e+00  -5.7419392150077284e+00  -7.1405615387727952e+00  -7.5336413709781924e+00  -8.2064172244095808e+00  -8.5273859863149859e+00  -8.9966619667727699e+00  -8.6974841599820092e+00  -9.0962322085513971e+00  -9.1407066694568240e+00  -8.8447740794233667e+00  -8.5853962939796471e+00  -8.3363616275749912e+00  -7.7729160256646050e+00  -6.6927176433463051e+00  -5.3979140157182686e+00  -4.2182524680839792e+00  -2.3460464222680826e+00  -9.3003590143409887e-01  1.7165096820990472e-01  3.1826605793769476e+00  4.3848246352253417e+00  5.4535975972836619e+00  7.0919258796222220e+00  8.1935144880313562e+00  9.3835722296184780e+00  1.1037080521653545e+01  1.1897983343905571e+01  1.2466402035878048e+01  1.2844356543826702e+01  1.3088208566139437e+01  1.3237566040672370e+01  1.3320450654427647e+01  1.3362529472040134e+01  1.3382092618173830e+01  1.3389285689779808e+01  1.6563006846897972e+00  1.6603040565029843e+00  1.6593319945158633e+00  1.6399820188819594e+00  1.5805415868703319e+00  1.4570127561782611e+00  1.2440492471232936e+00  9.0683531053164002e-01  2.9783921565825677e-01  -2.5015988353676638e-01  -8.9691144197366879e-01  -1.8401141813470094e+00  -2.6570339829963894e+00  -3.2265246844666389e+00  -3.7578156013164845e+00  -4.3314619255382860e+00  -5.7067025021666451e+00  -6.1240895703100646e+00  -6.5724839030147235e+00  -6.7626677436287315e+00  -7.1982353969343071e+00  -7.8569415831512508e+00  -8.2468845558757415e+00  -8.1712295626531226e+00  -7.8865551284712154e+00  -7.4134815469981872e+00  -6.7136362141320198e+00  -5.8141014094816503e+00  -4.7078742639325108e+00  -3.5192432595255494e+00  -1.7509519672652787e+00  -3.3723985828668496e-01  7.6489134703682482e-01  3.9290095337150430e+00  5.0503329626511064e+00  6.0608089125784206e+00  7.6457234861106862e+00  8.7515697678941002e+00  9.8685843178013322e+00  1.1716120596970583e+01  1.2661640328641347e+01  1.3229431425414642e+01  1.3616494761851941e+01  1.3876172643223756e+01  1.4034443684832757e+01  1.4118288330974991e+01  1.4150742384913482e+01  1.4154197438582550e+01  1.4147586705181139e+01  3.1213725159223857e+00  3.1164654031185348e+00  3.1073077232510227e+00  3.0808506012317003e+00  3.0190687986484797e+00  2.9015968198760937e+00  2.7055168468016908e+00  2.3959909336003777e+00  1.7980591052418504e+00  9.0369299867570441e-01  3.6381713307038188e-01  -2.3913235298549074e-01  -8.5991589924815715e-01  -1.5607380568461815e+00  -2.1010103669600118e+00  -2.6665789966469347e+00  -3.7521557529061536e+00  -4.5505333789484590e+00  -4.9238111082782323e+00  -5.3064734365866997e+00  -5.8989722703015026e+00  -6.3451005452896583e+00  -6.9098793885806487e+00  -7.3556699922962085e+00  -7.0894605043017913e+00  -6.3435596244531505e+00  -5.6552764127533877e+00  -4.7859754092879179e+00  -3.9102333897621491e+00  -2.7038230007798094e+00  -1.1746769852595789e+00  1.8679282132388386e-01  1.3598029020955835e+00  4.5702072108106737e+00  5.6434997528693405e+00  6.6241544749592052e+00  8.1919645429615517e+00  9.2865200306333175e+00  1.0467825593149316e+01  1.2538490950871957e+01  1.3576835891038522e+01  1.4190566946884669e+01  1.4567387246241884e+01  1.4817067617558447e+01  1.4976862599715732e+01  1.5068354922290148e+01  1.5110180696013654e+01  1.5124131193335041e+01  1.5130368360990417e+01  4.1947611177573156e+00  4.2002452640764876e+00  4.1992507107562993e+00  4.1796203691666705e+00  4.1247498346607880e+00  4.0209359677454053e+00  3.8577171016810787e+00  3.6243187937804979e+00  3.2646392131033188e+00  2.5231967380846640e+00  1.7776292003364027e+00  1.2468950218159880e+00  6.8572131484580745e-01  1.0606232745099735e-01  -3.8036579797268111e-01  -9.5475502696870362e-01  -1.7594759616471309e+00  -2.5622860750984011e+00  -3.3786813852808195e+00  -4.1668594799175196e+00  -4.6048557565623200e+00  -4.9276071047816030e+00  -5.0819538341523058e+00  -5.0085644249243142e+00  -5.0851893377057431e+00  -5.0932449889984746e+00  -4.5987944834173504e+00  -4.0293253391518418e+00  -2.9657636610053153e+00  -1.7587466770349565e+00  -5.4663905208745722e-01  7.3710904278576184e-01  2.0437486882802514e+00  5.0748425908315706e+00  6.1802067787131412e+00  7.1516190379874320e+00  8.7156819054975170e+00  9.8041672447761616e+00  1.1025089467644897e+01  1.3308602746876073e+01  1.4140552373452831e+01  1.4733289431608480e+01  1.5136407036805073e+01  1.5385768502271210e+01  1.5543137160648884e+01  1.5629879915598972e+01  1.5665034565790160e+01  1.5671016762782335e+01  1.5666688940737453e+01  5.4040532901658143e+00  5.3930063845047425e+00  5.3768933481533798e+00  5.3428582070331503e+00  5.2735441345645349e+00  5.1575905139989420e+00  5.0016410804175138e+00  4.8037816076252593e+00  4.5610039469648695e+00  4.0190673079685864e+00  2.9747951340413250e+00  2.2807618605605513e+00  1.7421386865222133e+00  1.2334786724238991e+00  6.7102953963150835e-01  9.2534195030277724e-02  -6.4307503061135862e-01  -1.3701829617028793e+00  -1.8715320039200707e+00  -2.8218078732272489e+00  -3.1763112086586442e+00  -3.4810667205953192e+00  -3.8930109294112643e+00  -4.1657086942063977e+00  -4.2953263882598884e+00  -4.1754407705556904e+00  -3.5986865651872280e+00  -3.1174161142940457e+00  -2.0312011732920094e+00  -9.4694141725701619e-01  -3.2882910211787547e-02  1.2521463704330502e+00  2.6793437004592331e+00  5.3326633719487875e+00  6.6568121069712047e+00  7.6458596168100090e+00  9.2060532649597278e+00  1.0283553371323659e+01  1.1512244811446388e+01  1.3897506444035734e+01  1.4635068574911315e+01  1.5213965046545445e+01  1.5831663607222129e+01  1.6223901454858240e+01  1.6421063784394306e+01  1.6522158011291054e+01  1.6563394097845791e+01  1.6574124520182245e+01  1.6576169069264772e+01  7.8811496788867172e+00  7.8917074831040877e+00  7.8875650133745525e+00  7.8511315883559476e+00  7.7782412096104467e+00  7.6514222032017560e+00  7.4158416513330581e+00  6.9205806468245061e+00  6.1605540498678160e+00  5.3913638025846993e+00  4.6026148524568145e+00  3.8036426816167119e+00  3.2075719055505507e+00  2.6752789286447234e+00  2.1237522917834037e+00  1.3541142332104281e+00  4.9567888505762053e-01  -1.7218287311318875e-01  -5.4285745263123086e-01  -8.0906626328952469e-01  -1.9212804211241754e+00  -2.4001845943164146e+00  -2.9916422309861406e+00  -3.3975831609536300e+00  -3.5454971369836943e+00  -3.3006283615804617e+00  -2.7829331334991090e+00  -2.3926780625183479e+00  -1.2249066770615700e+00  -3.5365978001209980e-01  4.6472774727496208e-01  1.8291222793512927e+00  3.2414453001782864e+00  5.3809843588912027e+00  7.0863255256177835e+00  8.1203414535209681e+00  9.6704163561978742e+00  1.0728310894506993e+01  1.1940256513958142e+01  1.4370559869606833e+01  1.5140084361950796e+01  1.5690447968466788e+01  1.6400742541677616e+01  1.6884612955840698e+01  1.7119497410265954e+01  1.7238657569001720e+01  1.7286008971318250e+01  1.7294708513766100e+01  1.7290728310845012e+01  8.8274983275595833e+00  8.8280130273033208e+00  8.8201485656399523e+00  8.7933424207879423e+00  8.7328862262617584e+00  8.6212645545877216e+00  8.4581092912190279e+00  8.1855765408090431e+00  7.8571870593869182e+00  7.2717703702407315e+00  6.1669395047726372e+00  5.2836396373864671e+00  4.5128637671336795e+00  3.8523390244498756e+00  3.2538131381585451e+00  2.7726042028793203e+00  2.3228477393386191e+00  1.6776874900272267e+00  9.0464706101076497e-01  3.7951816327786048e-01  -5.3862090251195938e-01  -1.5253712215883648e+00  -2.0199934986685806e+00  -2.4465973589162626e+00  -2.5645933932300267e+00  -2.3953237314130433e+00  -2.0731851716950720e+00  -1.7906411007322185e+00  -6.2713009524940100e-01  1.7124402355179144e-01  9.7869828863195807e-01  2.3811790604843792e+00  3.6714441629521972e+00  5.3800117627194837e+00  7.4525921786709066e+00  8.5836752035731134e+00  1.0127638197042018e+01  1.1147134963804039e+01  1.2330394563736077e+01  1.4803791062249122e+01  1.5571715350369344e+01  1.6171540307963777e+01  1.6953030972210950e+01  1.7529710765131924e+01  1.7833071029215017e+01  1.7970946862937414e+01  1.8022769395947023e+01  1.8035812029334053e+01  1.8040484627459957e+01  9.9221270113860491e+00  9.9181671584905509e+00  9.9038431385043175e+00  9.8650278941303640e+00  9.7781251501517090e+00  9.6734136937160997e+00  9.5801837956898979e+00  9.3869458536439421e+00  9.0154271834718767e+00  8.6487906330347748e+00  7.8216506121298712e+00  6.8300400977718354e+00  6.0636234459108360e+00  5.4864268114429846e+00  4.6519895174209589e+00  3.7187020269439421e+00  3.1284636653980713e+00  2.5920529741229132e+00  1.7488227434516539e+00  9.1082100551811496e-01  2.3029302145242347e-01  -6.3012807614102362e-01  -1.3867989038781676e+00  -1.8285120238003603e+00  -1.9253324661031039e+00  -1.7705480643070886e+00  -1.5332261705056063e+00  -1.2658060