<?xml version="1.0"?>
<VTKFile type="UnstructuredGrid"  version="0.1"  >
<UnstructuredGrid>
<Piece  NumberOfPoints="6869" NumberOfCells="12420">
<Points>
<DataArray  type="Float64"  NumberOfComponents="3"  format="ascii">2 0 0  1.999397637392408 0.04908245704582458 0  1.997590912410345 0.09813534865483603 0  1.99458091335738 0.1471291271993349 0  1.990369453344394 0.1960342806591212 0  1.98495906919742 0.2448213503984324 0  1.978353019929562 0.2934609489107235 0  1.970555284777882 0.3419237775206024 0  1.961570560806461 0.3901806440322565 0  1.951404260077057 0.4382024803137396 0  1.940062506389088 0.4859603598065277 0  1.92755213159088 0.5334255149497967 0  1.913880671464418 0.5805693545089247 0  1.899056361186073 0.627363480797783 0  1.883088130366042 0.6737797067844401 0  1.865985597669478 0.7197900730699762 0  1.847759065022573 0.7653668647301796 0  1.828419511407061 0.8104826280099797 0  1.807978586246887 0.8551101868605642 0  1.786448602391031 0.8992226593092131 0  1.76384252869671 0.9427934736519953 0  1.740173982217423 0.9857963844595681 0  1.715457220000544 1.028205488386443 0  1.689707130499414 1.069995239774194 0  1.66293922460509 1.111140466039204 0  1.635169626303167 1.151616382835691 0  1.60641506296129 1.191398608984867 0  1.576692855253213 1.230463181161254 0  1.546020906725474 1.268786568327291 0  1.514417693012969 1.306345685907554 0  1.481902250709918 1.343117909694037 0  1.448494165902934 1.379081089474134 0  1.414213562373095 1.414213562373095 0  1.379081089474134 1.448494165902934 0  1.343117909694037 1.481902250709918 0  1.306345685907554 1.514417693012969 0  1.268786568327291 1.546020906725474 0  1.230463181161254 1.576692855253212 0  1.191398608984867 1.60641506296129 0  1.151616382835691 1.635169626303167 0  1.111140466039205 1.66293922460509 0  1.069995239774195 1.689707130499414 0  1.028205488386443 1.715457220000544 0  0.9857963844595682 1.740173982217423 0  0.9427934736519956 1.76384252869671 0  0.8992226593092132 1.786448602391031 0  0.8551101868605644 1.807978586246887 0  0.8104826280099797 1.828419511407061 0  0.7653668647301797 1.847759065022573 0  0.7197900730699766 1.865985597669478 0  0.6737797067844401 1.883088130366042 0  0.6273634807977831 1.899056361186073 0  0.5805693545089247 1.913880671464418 0  0.5334255149497968 1.92755213159088 0  0.485960359806528 1.940062506389088 0  0.4382024803137395 1.951404260077057 0  0.3901806440322567 1.961570560806461 0  0.3419237775206027 1.970555284777882 0  0.2934609489107235 1.978353019929562 0  0.2448213503984326 1.98495906919742 0  0.1960342806591215 1.990369453344394 0  0.1471291271993349 1.99458091335738 0  0.09813534865483625 1.997590912410345 0  0.04908245704582453 1.999397637392408 0  1.224646799147353e-16 2 0  -0.04908245704582428 1.999397637392408 0  -0.09813534865483602 1.997590912410345 0  -0.1471291271993347 1.99458091335738 0  -0.1960342806591213 1.990369453344394 0  -0.2448213503984323 1.98495906919742 0  -0.2934609489107233 1.978353019929562 0  -0.3419237775206025 1.970555284777882 0  -0.3901806440322564 1.961570560806461 0  -0.4382024803137393 1.951404260077057 0  -0.4859603598065277 1.940062506389088 0  -0.5334255149497966 1.92755213159088 0  -0.5805693545089243 1.913880671464418 0  -0.6273634807977828 1.899056361186073 0  -0.6737797067844399 1.883088130366042 0  -0.7197900730699763 1.865985597669478 0  -0.7653668647301795 1.847759065022573 0  -0.8104826280099795 1.828419511407061 0  -0.8551101868605637 1.807978586246887 0  -0.8992226593092134 1.78644860239103 0  -0.9427934736519954 1.76384252869671 0  -0.985796384459568 1.740173982217423 0  -1.028205488386443 1.715457220000544 0  -1.069995239774194 1.689707130499414 0  -1.111140466039204 1.662939224605091 0  -1.151616382835691 1.635169626303167 0  -1.191398608984867 1.60641506296129 0  -1.230463181161253 1.576692855253213 0  -1.268786568327291 1.546020906725474 0  -1.306345685907553 1.514417693012969 0  -1.343117909694037 1.481902250709918 0  -1.379081089474134 1.448494165902934 0  -1.414213562373095 1.414213562373095 0  -1.448494165902934 1.379081089474134 0  -1.481902250709918 1.343117909694037 0  -1.514417693012969 1.306345685907553 0  -1.546020906725474 1.268786568327291 0  -1.576692855253212 1.230463181161254 0  -1.60641506296129 1.191398608984867 0  -1.635169626303167 1.151616382835691 0  -1.662939224605091 1.111140466039204 0  -1.689707130499414 1.069995239774194 0  -1.715457220000544 1.028205488386444 0  -1.740173982217423 0.9857963844595683 0  -1.76384252869671 0.9427934736519957 0  -1.78644860239103 0.8992226593092137 0  -1.807978586246887 0.8551101868605641 0  -1.828419511407061 0.8104826280099798 0  -1.847759065022573 0.7653668647301798 0  -1.865985597669478 0.7197900730699767 0  -1.883088130366041 0.6737797067844407 0  -1.899056361186073 0.6273634807977828 0  -1.913880671464418 0.5805693545089248 0  -1.92755213159088 0.533425514949797 0  -1.940062506389088 0.4859603598065281 0  -1.951404260077057 0.4382024803137401 0  -1.961570560806461 0.3901806440322572 0  -1.970555284777882 0.3419237775206024 0  -1.978353019929562 0.2934609489107236 0  -1.98495906919742 0.2448213503984327 0  -1.990369453344394 0.1960342806591217 0  -1.99458091335738 0.1471291271993355 0  -1.997590912410345 0.09813534865483593 0  -1.999397637392408 0.04908245704582465 0  -2 2.449293598294706e-16 0  -1.999397637392408 -0.04908245704582416 0  -1.997590912410345 -0.09813534865483545 0  -1.99458091335738 -0.147129127199335 0  -1.990369453344394 -0.1960342806591212 0  -1.98495906919742 -0.2448213503984322 0  -1.978353019929562 -0.2934609489107232 0  -1.970555284777883 -0.3419237775206019 0  -1.961570560806461 -0.3901806440322567 0  -1.951404260077057 -0.4382024803137396 0  -1.940062506389088 -0.4859603598065276 0  -1.92755213159088 -0.5334255149497965 0  -1.913880671464418 -0.5805693545089242 0  -1.899056361186074 -0.6273634807977824 0  -1.883088130366042 -0.6737797067844402 0  -1.865985597669478 -0.7197900730699762 0  -1.847759065022574 -0.7653668647301793 0  -1.828419511407061 -0.8104826280099794 0  -1.807978586246887 -0.8551101868605636 0  -1.786448602391031 -0.8992226593092133 0  -1.76384252869671 -0.9427934736519953 0  -1.740173982217423 -0.9857963844595679 0  -1.715457220000544 -1.028205488386443 0  -1.689707130499414 -1.069995239774194 0  -1.662939224605091 -1.111140466039204 0  -1.635169626303167 -1.151616382835691 0  -1.60641506296129 -1.191398608984866 0  -1.576692855253213 -1.230463181161253 0  -1.546020906725474 -1.268786568327291 0  -1.51441769301297 -1.306345685907553 0  -1.481902250709918 -1.343117909694037 0  -1.448494165902934 -1.379081089474134 0  -1.414213562373095 -1.414213562373095 0  -1.379081089474134 -1.448494165902934 0  -1.343117909694037 -1.481902250709918 0  -1.306345685907554 -1.514417693012968 0  -1.268786568327292 -1.546020906725473 0  -1.230463181161255 -1.576692855253212 0  -1.191398608984866 -1.60641506296129 0  -1.15161638283569 -1.635169626303168 0  -1.111140466039204 -1.66293922460509 0  -1.069995239774195 -1.689707130499414 0  -1.028205488386444 -1.715457220000544 0  -0.9857963844595684 -1.740173982217423 0  -0.9427934736519957 -1.76384252869671 0  -0.8992226593092139 -1.78644860239103 0  -0.8551101868605649 -1.807978586246886 0  -0.8104826280099807 -1.828419511407061 0  -0.7653668647301807 -1.847759065022573 0  -0.7197900730699759 -1.865985597669478 0  -0.6737797067844399 -1.883088130366042 0  -0.6273634807977829 -1.899056361186073 0  -0.5805693545089249 -1.913880671464418 0  -0.5334255149497971 -1.92755213159088 0  -0.4859603598065282 -1.940062506389088 0  -0.4382024803137402 -1.951404260077057 0  -0.3901806440322573 -1.961570560806461 0  -0.3419237775206034 -1.970555284777882 0  -0.2934609489107246 -1.978353019929562 0  -0.2448213503984319 -1.98495906919742 0  -0.1960342806591209 -1.990369453344394 0  -0.1471291271993347 -1.99458091335738 0  -0.09813534865483606 -1.997590912410345 0  -0.04908245704582478 -1.999397637392408 0  -3.673940397442059e-16 -2 0  0.04908245704582404 -1.999397637392408 0  0.09813534865483532 -1.997590912410345 0  0.147129127199334 -1.99458091335738 0  0.1960342806591202 -1.990369453344394 0  0.2448213503984312 -1.98495906919742 0  0.2934609489107239 -1.978353019929562 0  0.3419237775206027 -1.970555284777882 0  0.3901806440322566 -1.961570560806461 0  0.4382024803137395 -1.951404260077057 0  0.4859603598065275 -1.940062506389088 0  0.5334255149497964 -1.92755213159088 0  0.5805693545089241 -1.913880671464418 0  0.6273634807977823 -1.899056361186074 0  0.6737797067844392 -1.883088130366042 0  0.7197900730699752 -1.865985597669478 0  0.76536686473018 -1.847759065022573 0  0.8104826280099801 -1.828419511407061 0  0.8551101868605643 -1.807978586246887 0  0.8992226593092132 -1.786448602391031 0  0.9427934736519952 -1.76384252869671 0  0.9857963844595677 -1.740173982217423 0  1.028205488386443 -1.715457220000544 0  1.069995239774194 -1.689707130499414 0  1.111140466039204 -1.662939224605091 0  1.15161638283569 -1.635169626303168 0  1.191398608984866 -1.606415062961291 0  1.230463181161254 -1.576692855253212 0  1.268786568327291 -1.546020906725474 0  1.306345685907554 -1.514417693012969 0  1.343117909694037 -1.481902250709918 0  1.379081089474134 -1.448494165902934 0  1.414213562373095 -1.414213562373095 0  1.448494165902933 -1.379081089474134 0  1.481902250709918 -1.343117909694037 0  1.514417693012968 -1.306345685907554 0  1.546020906725473 -1.268786568327292 0  1.576692855253212 -1.230463181161255 0  1.60641506296129 -1.191398608984866 0  1.635169626303167 -1.15161638283569 0  1.66293922460509 -1.111140466039204 0  1.689707130499414 -1.069995239774195 0  1.715457220000544 -1.028205488386444 0  1.740173982217423 -0.9857963844595685 0  1.76384252869671 -0.9427934736519958 0  1.78644860239103 -0.899222659309214 0  1.807978586246886 -0.8551101868605651 0  1.828419511407061 -0.8104826280099808 0  1.847759065022573 -0.7653668647301808 0  1.865985597669478 -0.719790073069976 0  1.883088130366042 -0.67377970678444 0  1.899056361186073 -
[...]
<PointData  Scalars="f_2885660"> 
<DataArray  type="Float64"  Name="f_2885660"  format="ascii">-8.0377358453250114e-01  -8.3570429102957622e-01  -8.5728139217496169e-01  -8.8705811564129777e-01  -9.1256850240114284e-01  -9.3908195346953927e-01  -9.6368581305485634e-01  -9.9477695162234636e-01  -1.0186378604857025e+00  -1.0485725122667271e+00  -1.0748593097874708e+00  -1.0996085192610978e+00  -1.1264766020576880e+00  -1.1584368294082505e+00  -1.1816253069644431e+00  -1.2148051984734016e+00  -1.2352715901145217e+00  -1.2668962734786822e+00  -1.2915941104221975e+00  -1.3239407775686534e+00  -1.3530083861198163e+00  -1.3856930015729905e+00  -1.4095055387955908e+00  -1.4465231065256206e+00  -1.4722699493677966e+00  -1.5036895126737144e+00  -1.5314989211627126e+00  -1.5656432955568969e+00  -1.5958211191760792e+00  -1.6320685344399752e+00  -1.6615207213249683e+00  -1.6939741499018666e+00  -1.7373781900019840e+00  -1.7658226051078469e+00  -1.8023069742011679e+00  -1.8323363036129485e+00  -1.8702060008430286e+00  -1.9077564304191572e+00  -1.9486965201377202e+00  -1.9775784919127308e+00  -2.0181250808137987e+00  -2.0567765415864643e+00  -2.0835337090151240e+00  -2.1321299203021198e+00  -2.1665536797991662e+00  -2.2145411792927057e+00  -2.2501165719025051e+00  -2.2973486022877161e+00  -2.3331603430165542e+00  -2.3838195071703665e+00  -2.4280893214651145e+00  -2.4744656452620473e+00  -2.5236253816737997e+00  -2.5795693444997938e+00  -2.6245717972397200e+00  -2.6653810979596169e+00  -2.7403174096814680e+00  -2.7659420856351247e+00  -2.8465275051557137e+00  -2.8858315519462936e+00  -2.9675710551724981e+00  -3.0193513529969347e+00  -3.0871384242649609e+00  -3.1532002343561230e+00  -3.2423326547125466e+00  -3.2798259502460803e+00  -3.3900108852805819e+00  -3.4311827028515371e+00  -3.5471847787682917e+00  -3.6037346053676851e+00  -3.7057476732184522e+00  -3.7854781678341376e+00  -3.9014802600407905e+00  -3.9828836544421451e+00  -4.1157614324185987e+00  -4.2227837083484943e+00  -4.3446068137640657e+00  -4.4682065915791407e+00  -4.5825601147143447e+00  -4.7105359803252549e+00  -4.8360696312311644e+00  -4.9933732874123997e+00  -5.1627745508550671e+00  -5.3033079443769857e+00  -5.5265528853884378e+00  -5.6939007216067337e+00  -5.8596878087779425e+00  -6.1152115889021488e+00  -6.3276529849087897e+00  -6.5940375736839405e+00  -6.8145315463490244e+00  -7.0129526744893198e+00  -7.2863239880636783e+00  -7.6401458286279391e+00  -7.8827085172776705e+00  -8.3012695829636201e+00  -8.6662880712684540e+00  -8.8739774949173995e+00  -9.1986716359868890e+00  -9.6072352180071672e+00  -9.8314217027759288e+00  -1.0010939207651948e+01  -1.0413049733522456e+01  -1.0326657152700372e+01  -1.0353552836327795e+01  -1.0288334842371285e+01  -1.0053473154332771e+01  -1.0048442648914977e+01  -9.8797655938610411e+00  -9.4237385607136552e+00  -8.9889617804165116e+00  -8.3124972442989300e+00  -7.6003796495497111e+00  -6.8170918469157415e+00  -5.8294604374730064e+00  -4.7595356993700344e+00  -3.5659184985705963e+00  -2.1855319508010473e+00  -7.7915476167809472e-01  6.8195663990420019e-01  2.0600277180023081e+00  3.5815801912761889e+00  5.0486696639133273e+00  6.3836637794835527e+00  8.0276812046244341e+00  9.6405761662315399e+00  1.1018301411196873e+01  1.2345432085853814e+01  1.3384069036043565e+01  1.4504332665157367e+01  1.5309086492500262e+01  1.6077786721011005e+01  1.6877772438592135e+01  1.7265184147183803e+01  1.7740377684590840e+01  1.7830446064399876e+01  1.7867268466772320e+01  1.7713182077214277e+01  1.7613721335823612e+01  1.7353385100793126e+01  1.7009627210158129e+01  1.6582754055252298e+01  1.6086330454861855e+01  1.5638796198972502e+01  1.5249720458118487e+01  1.4749623520826789e+01  1.4122364657068525e+01  1.3512750051751624e+01  1.2946388099689084e+01  1.2433472808554786e+01  1.1944882750931926e+01  1.1300751222984932e+01  1.0927531779920258e+01  1.0261873836010931e+01  9.8108259998726961e+00  9.6766652556767294e+00  9.1312643541422869e+00  8.5670984328315747e+00  8.2702473078253362e+00  7.9720813893717128e+00  7.5114862014469921e+00  7.2400371446714251e+00  6.9207259011726743e+00  6.6360259672051090e+00  6.3007245728645866e+00  6.1147058062897335e+00  5.8703191360031290e+00  5.5335852004691271e+00  5.3470409527913709e+00  5.1131368759942291e+00  4.8707928640366260e+00  4.7537702016373817e+00  4.4739497228571068e+00  4.3424560207470098e+00  4.1040112283779182e+00  3.9758006336793996e+00  3.7859392959384701e+00  3.6366324057894399e+00  3.4870287226383674e+00  3.3626789249604645e+00  3.1887832079119045e+00  3.0824812405837818e+00  2.9220436951193993e+00  2.8046412505899090e+00  2.7161285764298735e+00  2.5972361618112667e+00  2.4883297824340906e+00  2.3877673398824655e+00  2.2868198649983520e+00  2.2091837864305646e+00  2.1239717961470386e+00  2.0131430348044326e+00  1.9614683475387122e+00  1.8514352472630629e+00  1.7897171320939445e+00  1.7282250031638156e+00  1.6397902672693465e+00  1.5852905929833667e+00  1.5097148714565576e+00  1.4450409538496405e+00  1.3786662708682520e+00  1.3222352765517031e+00  1.2626955174499441e+00  1.2049576007729998e+00  1.1440966260387240e+00  1.0940546056285885e+00  1.0342984656933649e+00  9.8753294040746586e-01  9.3731215256269307e-01  8.7716033768553670e-01  8.2962934614996631e-01  7.8696407814828595e-01  7.3514112468747506e-01  6.8897501255887195e-01  6.3672264048242322e-01  5.9366513925700326e-01  5.4857775153717403e-01  5.0233538715527859e-01  4.5736744319665612e-01  4.2079367854016492e-01  3.6612003238810154e-01  3.3620018825730441e-01  2.8693787447738445e-01  2.5128222444764375e-01  2.0790011463268249e-01  1.6942864658518647e-01  1.2954505138000291e-01  9.2456902264857838e-02  5.5133946950575240e-02  1.7772511468767602e-02  -1.3625911300463103e-02  -5.2769721646157876e-02  -8.6751415053279449e-02  -1.2146551749216510e-01  -1.5105671941486937e-01  -1.9385546200597148e-01  -2.1815299552754819e-01  -2.5303808867757971e-01  -2.8730346224075931e-01  -3.1794380330099536e-01  -3.4867891622437880e-01  -3.7880772531674511e-01  -4.0875194260129438e-01  -4.4471643189933435e-01  -4.6446394378691214e-01  -5.0002584555655039e-01  -5.2962971512343571e-01  -5.5613236744463546e-01  -5.8130178892007356e-01  -6.1268952475317473e-01  -6.4016485463860973e-01  -6.6980456769455399e-01  -6.9732697394291865e-01  -7.2193720396555405e-01  -7.5037140469702468e-01  -7.8051536871064353e-01  3.0058715403748097e+00  3.0275375172615946e+00  3.0427082980422764e+00  2.9694453334553241e+00  3.0741326215911084e+00  3.2024613396154518e+00  3.2270164631184621e+00  3.2716083873192527e+00  3.4370389273894775e+00  3.7417911490089502e+00  3.9124856687364047e+00  4.0674308128198797e+00  4.1124798465915564e+00  4.0831437617546564e+00  3.8775028987314495e+00  3.7619653406269751e+00  3.9584087565757642e+00  4.1097328488333940e+00  4.3297781505089796e+00  4.4707357766988265e+00  4.5174126187668158e+00  4.6471813419526331e+00  4.6433075525243384e+00  4.7305973142861415e+00  4.8086063028585047e+00  4.7710831890557417e+00  4.9310913366573130e+00  4.9532208520320582e+00  4.9656510841813049e+00  4.9505840792446048e+00  4.8974173314294562e+00  5.1085419911937988e+00  5.1185294812879647e+00  5.4137786662007548e+00  5.5258320872052211e+00  5.6610108926409319e+00  5.8571482446378376e+00  5.9417478136909558e+00  6.0220331168943941e+00  6.1476220715022789e+00  6.4293283184570651e+00  6.5876677571693634e+00  6.8309045748418269e+00  6.8328420689191365e+00  6.9522583779843794e+00  6.9949306394835817e+00  7.0210569044718412e+00  7.2871690025997582e+00  7.5671014626444517e+00  7.7006581723335250e+00  7.9316121906003856e+00  8.2046386981836630e+00  8.4661982715385875e+00  8.6798655594714713e+00  8.8673414659783187e+00  8.9889708451160111e+00  9.3326267662757552e+00  9.7140302599988804e+00  9.9387959533295049e+00  1.0011621642455815e+01  1.0027411959054508e+01  1.0301176893244495e+01  1.0711951671466416e+01  1.0973558381329640e+01  1.1328010918166642e+01  1.1534217764046529e+01  1.1868440129778602e+01  1.2047220880270602e+01  1.2123232104503590e+01  1.2385744126949193e+01  1.2661414072903005e+01  1.3195816223480435e+01  1.3818108511169322e+01  1.4419840370912608e+01  1.4906427986583688e+01  1.5220015587139468e+01  1.5656803557173610e+01  1.6018771959374174e+01  1.6171722848335463e+01  1.6287175835929233e+01  1.6559687507096861e+01  1.6825106944157444e+01  1.6968859208809175e+01  1.7465024239799689e+01  1.8069052709101882e+01  1.8817510185614502e+01  1.9537588324863254e+01  1.9873174857230083e+01  2.0164293514807259e+01  2.0067905560325958e+01  2.0175791239361050e+01  2.0393517539830817e+01  2.0571040685804974e+01  2.0623351119708698e+01  2.1188749462725223e+01  2.1744143034080096e+01  2.1972371057363020e+01  2.2213454308445918e+01  2.2510720399087127e+01  2.2756252221542173e+01  2.2905976731355384e+01  2.3054217531865191e+01  2.3137330725555739e+01  2.3115219687814193e+01  2.2975281293184530e+01  2.2933869747014793e+01  2.2743631100617847e+01  2.2431669535152036e+01  2.2021221258783243e+01  2.1582784721961243e+01  2.1284523728831484e+01  2.0919812683723112e+01  2.0408928017430163e+01  1.9818798669840390e+01  1.9139223261319188e+01  1.8298408209902398e+01  1.7456531584286537e+01  1.6577837823901444e+01  1.5472682087144161e+01  1.4546839701111706e+01  1.3670418632777677e+01  1.2843964434390207e+01  1.1576649411639268e+01  1.0384015095252527e+01  9.3354965354915525e+00  8.5589226899795126e+00  7.1629749673560310e+00  6.2044755800842930e+00  5.4586650101493852e+00  4.8203323937518752e+00  3.7531033879359375e+00  2.9712153678981044e+00  2.5627126489754395e+00  1.8914241780973400e+00  1.1568823319553356e+00  4.8291180716852755e-01  -1.3401819092355581e-03  -4.3372640557576897e-01  -8.8986753189183587e-01  -1.2650318963665195e+00  -1.5919124428469416e+00  -1.6751117206693782e+00  -1.5953621799394626e+00  -1.8487170716569417e+00  -2.0469488595926078e+00  -2.4411252222058399e+00  -2.4564413828202651e+00  -2.7266758699214813e+00  -2.9919602217952312e+00  -3.1345904408203800e+00  -3.4408329137207190e+00  -3.3339812606388817e+00  -3.3496999697675354e+00  -3.4465787986180256e+00  -3.3653942148727807e+00  -3.3179580001503863e+00  -3.4267811588687085e+00  -3.4361939094561964e+00  -3.5077407852855087e+00  -3.3319486183706504e+00  -3.2547520093780724e+00  -3.4483831063628028e+00  -3.1615488912362584e+00  -2.7463814028249387e+00  -2.5884990093987592e+00  -2.6646035436511513e+00  -2.6215564787463101e+00  -2.4969228658648803e+00  -2.3224902838494610e+00  -2.1166126304893909e+00  -1.7857736427349864e+00  -1.6341119590480830e+00  -1.4157269603837255e+00  -1.1781146588840845e+00  -9.8814879403241540e-01  -9.0047398075115170e-01  -6.1776677863193497e-01  -5.1827454002592455e-01  -4.7714709236995828e-01  -4.5585003209160951e-01  -1.6929137962028903e-01  1.1986599619771238e-01  1.8093339419111282e-01  3.1502886659555202e-01  3.7027968655019783e-01  3.8607099073745199e-01  4.8617872618806612e-01  7.5068330906311664e-01  8.7649521406551179e-01  9.2583830927460409e-01  8.3225245354691213e-01  9.2792074873433017e-01  1.0281008801355278e+00  1.1925220804491499e+00  1.2484418776232722e+00  1.1379474358782691e+00  1.2370333461457823e+00  1.3512837329235132e+00  1.4786721715268907e+00  1.5072996558436420e+00  1.5286204933833099e+00  1.5418788498620830e+00  1.5388298593942416e+00  1.6064615312382882e+00  1.7233132527210882e+00  1.7926303408057378e+00  1.9946313435538512e+00  2.1187958131755296e+00  2.1998904530359944e+00  2.2731902838208233e+00  2.2015490279744201e+00  1.9976526844122340e+00  2.0513947040644576e+00  1.9253258539040565e+00  1.7712513250947652e+00  2.0010804228031778e+00  2.1181625817475469e+00  2.0030303502677405e+00  2.1106430548436581e+00  2.0731070861632852e+00  1.9043446908547947e+00  1.9350205893916934e+00  1.8437083060009085e+00  1.9703757612644346e+00  2.0860043870204446e+00  2.1687417591701341e+00  2.2008265976865879e+00  2.0987955916470891e+00  2.0630732640742520e+00  2.1188202838836299e+00  2.1903100539553759e+00  2.2607626275899002e+00  2.3041943395181721e+00  2.3849560472711371e+00  2.4107514251840239e+00  2.4045500395077233e+00  2.3286302618352401e+00  2.3351292036926101e+00  2.3634346052631514e+00  2.3691586339496764e+00  2.4133995879343555e+00  2.4439117949289559e+00  2.4579205824910049e+00  2.5456058894268732e+00  2.5394330914761927e+00  2.5348558894891506e+00  2.5725574270447642e+00  2.7215934435075195e+00  2.8005594267585892e+00  2.8065508150933223e+00  2.8343379514112002e+00  2.8320124082654337e+00  2.8474789170727326e+00  2.9281911095201378e+00  2.9806173460524188e+00  2.9579533704018144e+00  -8.3047912434572779e-01  6.6348813124627842e-02  -1.6534474404293222e+00  1.0673747082306015e+00  -2.4876215740896823e+00  -3.4723793427944374e+00  2.2510158554948116e+00  -1.2316651716317384e+00  -4.0366153801336097e-01  -1.0502070869666271e+00  -2.7820137008155865e-01  5.2715674910213439e-01  -2.0448719832275399e+00  -7.3796959185701838e-01  -1.7561130408811982e+00  6.3962408821196981e-01  -6.6158569534098682e-03  3.6004663298820878e+00  -1.5590481007298704e+00  -4.7115779940255944e+00  -3.0288384037007678e+00  1.5757485553754833e+00  1.8885998262480881e+00  -2.4278534422999480e+00  9.6868322442064003e-01  -2.5443678729712325e+00  -1.2906922001555916e+00  -4.8798399392846065e-01  5.5080187078738705e+00  -6.2523459642213384e+00  -9.9155599356573565e-01  -2.0761225689154728e+00  4.9593315316350278e-01  -5.3464540865009325e-01  -3.1044336633212488e-01  -2.4494755063801441e-01  -1.3422913392797733e+00  2.7836633834232520e+00  -1.4429722341788851e+00  -4.2981402480213076e+00  -1.7722144694951561e-01  3.3521120576249941e+00  -1.0063046353430087e+00  2.7266327533085277e-01  -3.5314459478809299e+00  -3.5517669039343489e+00  4.8802159343530427e-01  -7.0139703097714179e-01  -6.2685397848279878e-01  -8.3625248036531352e-01  7.8101403716475737e+00  2.1113001722366409e+00  -1.8028383910862713e+00  -1.4486705551005603e+00  1.0895685441750479e-01  -7.7975593590681056e+00  1.8147649758879439e-01  -1.7904152167045559e+00  1.5784611081451883e+00  1.0894414614219499e+00  -2.1752768255947599e+00  -1.9195283118775450e-01  -1.1644860121281273e+00  -1.0113894312949236e+00  -2.8475385788030003e+00  7.0950997326977705e-01  -2.1871622788904541e+00  -8.4094773642900456e-01  9.0626114022299628e-02  7.7440817257625372e-01  4.4649270345790537e+00  1.3807832391337160e+00  -6.8499189909554159e-01  -1.5273325153485211e+00  -1.1323961197207955e+00  -8.2301786748084937e-01  -2.7082799403305153e+00  -2.2671275380669287e+00  1.2879730055636267e+00  1.0062021242573163e+01  1.2007172250955180e+00  5.0929519860470611e+00  -1.7198383504160513e+00  3.4633818867567889e+00  -1.4928513916200956e+00  -5.5929844190290350e+00  9.2813364511885058e-02  -4.7193200857795938e+00  -2.6988086917644445e+00  2.8382470752331668e+00  -3.0250693182132848e+00  -4.0535852513663123e-01  -1.9801439904388891e+00  -9.1252452638587123e+00  -8.5573149519538746e-02  4.8278335742065576e-01  2.9057274520407583e+00  -1.1202175994657295e+00  -4.9120708360545962e+00  -1.6408706762384877e+00  -3.3104398933649444e+00  -3.1953104482007499e+00  -3.9265551962387885e-01  9.2497098921599563e-01  1.7773176741614336e+00  -3.9190763642272515e+00  -1.8869216907664472e+00  -1.4235575344374902e+00  2.0542273093837551e+00  1.9027838384087299e+00  -8.8544068440347179e-01  -8.7461270943938285e-01  -2.4186005082371856e-01  7.5421508842047480e-01  -1.8890129812744447e+00  -1.0602711691981708e+00  -5.9874647454081786e-01  -3.6152819334972708e-01  1.2401690982804507e+01  -1.4110681351103072e+00  2.1266601624554058e+00  -1.6215158510844603e+00  3.0512545143984232e-01  -1.0991541808184058e+00  -2.3513046254451364e+00  9.1288769273334713e-01  -2.4786156276113340e+00  1.2505795800799748e+00  -2.1501246257481501e+00  3.6583574394795221e-01  -2.3187595717767180e+00  -9.1954841468404087e+00  6.9272983190740787e+00  6.0302190873881134e+00  -3.8976898894723702e+00  -7.3528298362794944e+00  -6.4092147686272263e+00  -6.4812216680569321e+00  -6.1424994589803694e-03  -1.1554589763110146e+00  -1.2566389295776361e+00  -6.4686858354897336e-01  -9.5144154909459855e-01  -3.8442382283455090e+00  -3.8495089491138768e-01  -1.2451571986106461e-01  -3.6127987005846413e-01  7.3010899045579714e-01  -3.8386825737370707e+00  3.1812581560184641e-02  -5.4047043138506750e+00  -1.4123652027581928e+00  -1.2274497958575277e+00  -6.7886888225847752e-01  -2.6204013628393868e-01  4.2859518296928565e+00  2.4611153938757728e+00  -2.9407845574466696e+00  -2.4708517596249129e+00  -2.9150279174325751e+00  -1.4986721552932130e+00  -2.7803371685424896e+00  4.5302512230674434e+00  2.2792552426052673e-01  1.4500538832800270e+01  6.2443629824863012e-01  -1.8677369273271205e+00  -2.0346402891567081e-01  -2.0842612194842185e+00  -1.9055124345516650e+00  -5.8796151079100911e-01  -1.2932811450683801e+00  1.5209095615851880e+00  -6.3149081962033271e-01  -2.5182867694485322e+00  2.6885015702307768e-01  5.5920994801151980e-01  1.0951751958115821e+00  1.3250640942882572e-01  4.1553730527465338e-01  -2.2555882626402743e+00  -4.8154610698454409e-01  -4.5060080201074868e+00  4.8178961602280290e-01  4.7390142821426756e-02  -1.2724551588170135e-01  -4.9529283640232125e-01  -8.1792262587801670e+00  -1.1856982025276446e+00  5.1863052459663024e+00  -1.6866820123506467e+00  -1.9167121676630754e+00  -1.3913644776805469e+00  -5.5378563445233597e-01  -5.3489623907866983e+00  3.0489225836828431e+00  2.5311113458516350e+00  3.5066449894645597e+00  -4.4157819439112682e+00  -9.8112757626380620e-01  5.2823812543357695e-01  -1.7445108852588782e+00  -1.2955936196718891e+00  -1.5482297372718874e+00  -1.1338941334490846e+00  -2.3192507354597245e+00  8.1351911830989607e+00  -7.4802314208177179e-01  -9.0775675807810496e-01  -9.9524016098723755e-01  -1.2040142692972403e-01  2.6034833614790993e+00  5.8261725424703368e+00  -4.1925840506709289e+00  -4.9146462013535325e-01  9.9245422114568871e-01  2.0295777467162996e+00  3.4583854070556463e+00  2.5432255971840534e+00  1.8858953015969080e+00  -8.3886811490630597e-01  1.4228142112372963e+00  -3.4618010892814706e+00  -8.9778843962538915e+00  -3.5026334247457038e+00  -1.1810312248797482e-01  9.3929736910904076e+00  -5.6360476716045971e-01  -8.3772881660261223e-01  -2.0756896922426837e+00  1.6431381850540522e+01  -3.2731804635079316e+00  -1.9321922638930469e+00  -5.7931434128925041e-01  -8.0336453420852063e+00  6.9368854435042833e+00  5.6544756208664626e-01  3.4903376148850579e-01  3.1458093850061011e+00  -6.5629198449282689e-01  -3.0796767652386375e-01  2.0340166652969108e-01  -7.3821083149326805e-01  1.8305744007019802e+00  -7.6214305106589197e-01  -7.1329949116564217e-01  -6.0460833225386716e+00  2.2236595485420771e+00  -2.0079151351232221e+00  -8.2481756776628767e+00  3.9451431355621636e+00  5.1493398683482994e-01  3.3045623107409411e-01  1.1775787440151424e+00  6.5847374264161180e+00  1.4553012400828209e+00  -3.3006415837317533e+00  -2.7359747964088617e+00  -1.4410800904735848e+00  6.1497361945368378e-01  -1.5890443627853605e+00  -2.7922950854912427e+00  9.7525418378389628e-01  1.5826183706428119e+00  1.0149912382348343e+00  -3.3640359013079618e-01  -1.1404187544237940e+00  -2.9091093986381772e-01  -1.3838381008689375e+00  -1.3341304508347887e+00  -1.5057549604831886e+00  1.3830403574852057e-01  -2.4694770387446829e-02  -1.7098799858452056e+00  -1.1459121238745087e+00  -2.1591525929195559e+00  -5.2564514325990066e+00  3.4933290719866925e-03  7.8303640047098222e-01  -1.8412615055340182e+00  -8.7224967586942803e-01  2.3025940710234952e-01  -5.3508825535817217e-01  -6.0289978829904133e-02  1.5623792755631651e+00  1.3169885210136447e+00  -2.3197544576022162e+00  -2.2314380385035264e+00  -1.0797983417583024e+00  -1.2526775455592285e+00  -1.1869862085194141e+00  1.5727591106542815e-01  8.3503310114176277e-01  -8.9810232952355384e-01  -1.0538561808530518e+00  -1.0430707103961689e+00  -6.8710155523558845e+00  1.7620270023512852e+01  -2.5996318357273682e+00  -2.8439537725373571e+00  6.9639451315379886e-01  1.2787467