<?xml version="1.0"?>
<VTKFile type="UnstructuredGrid"  version="0.1"  >
<UnstructuredGrid>
<Piece  NumberOfPoints="4073" NumberOfCells="7430">
<Points>
<DataArray  type="Float64"  NumberOfComponents="3"  format="ascii">-20 2.5 0  -20 0 0  -1 0 0  -0.9996988186962042 0.02454122852291233 0  -0.9987954562051724 0.04906767432741797 0  -0.9972904566786902 0.07356456359966773 0  -0.9951847266721968 0.09801714032956083 0  -0.99247953459871 0.1224106751992163 0  -0.989176509964781 0.1467304744553618 0  -0.9852776423889412 0.1709618887603012 0  -0.9807852804032304 0.1950903220161286 0  -0.9757021300385285 0.21910124015687 0  -0.970031253194544 0.2429801799032641 0  -0.9637760657954398 0.2667127574748985 0  -0.9569403357322088 0.2902846772544624 0  -0.9495281805930367 0.3136817403988914 0  -0.9415440651830207 0.3368898533922203 0  -0.9329927988347388 0.3598950365349883 0  -0.9238795325112867 0.3826834323650899 0  -0.9142097557035307 0.4052413140049899 0  -0.9039892931234433 0.427555093430282 0  -0.8932243011955152 0.4496113296546069 0  -0.8819212643483549 0.4713967368259979 0  -0.8700869911087113 0.4928981922297841 0  -0.857728610000272 0.5141027441932218 0  -0.8448535652497071 0.5349976198870972 0  -0.8314696123025453 0.5555702330196022 0  -0.8175848131515836 0.5758081914178454 0  -0.8032075314806448 0.5956993044924335 0  -0.7883464276266062 0.6152315905806269 0  -0.773010453362737 0.6343932841636455 0  -0.7572088465064846 0.6531728429537766 0  -0.7409511253549589 0.6715589548470186 0  -0.7242470829514668 0.6895405447370671 0  -0.7071067811865475 0.7071067811865476 0  -0.6895405447370669 0.7242470829514669 0  -0.6715589548470184 0.740951125354959 0  -0.6531728429537765 0.7572088465064847 0  -0.6343932841636454 0.7730104533627371 0  -0.6152315905806267 0.7883464276266063 0  -0.5956993044924334 0.8032075314806449 0  -0.5758081914178453 0.8175848131515837 0  -0.555570233019602 0.8314696123025455 0  -0.534997619887097 0.8448535652497072 0  -0.5141027441932217 0.8577286100002721 0  -0.492898192229784 0.8700869911087115 0  -0.4713967368259977 0.881921264348355 0  -0.4496113296546067 0.8932243011955152 0  -0.4275550934302819 0.9039892931234434 0  -0.4052413140049897 0.9142097557035307 0  -0.3826834323650897 0.9238795325112867 0  -0.3598950365349882 0.9329927988347388 0  -0.3368898533922199 0.9415440651830208 0  -0.3136817403988914 0.9495281805930367 0  -0.2902846772544622 0.9569403357322089 0  -0.2667127574748983 0.9637760657954398 0  -0.2429801799032639 0.970031253194544 0  -0.2191012401568697 0.9757021300385286 0  -0.1950903220161282 0.9807852804032304 0  -0.1709618887603012 0.9852776423889412 0  -0.1467304744553616 0.989176509964781 0  -0.1224106751992162 0.99247953459871 0  -0.09801714032956065 0.9951847266721969 0  -0.07356456359966733 0.9972904566786902 0  -0.04906767432741801 0.9987954562051724 0  -0.02454122852291214 0.9996988186962042 0  6.123233995736766e-17 1 0  0.02454122852291226 0.9996988186962042 0  0.04906767432741813 0.9987954562051724 0  0.07356456359966745 0.9972904566786902 0  0.09801714032956077 0.9951847266721968 0  0.1224106751992163 0.99247953459871 0  0.1467304744553617 0.989176509964781 0  0.1709618887603014 0.9852776423889412 0  0.1950903220161283 0.9807852804032304 0  0.2191012401568698 0.9757021300385286 0  0.242980179903264 0.970031253194544 0  0.2667127574748984 0.9637760657954398 0  0.2902846772544623 0.9569403357322089 0  0.3136817403988916 0.9495281805930367 0  0.3368898533922201 0.9415440651830208 0  0.3598950365349883 0.9329927988347388 0  0.3826834323650898 0.9238795325112867 0  0.4052413140049899 0.9142097557035307 0  0.4275550934302822 0.9039892931234433 0  0.4496113296546066 0.8932243011955153 0  0.4713967368259978 0.8819212643483549 0  0.4928981922297841 0.8700869911087113 0  0.5141027441932217 0.8577286100002721 0  0.5349976198870973 0.844853565249707 0  0.5555702330196023 0.8314696123025452 0  0.5758081914178453 0.8175848131515837 0  0.5956993044924335 0.8032075314806448 0  0.6152315905806268 0.7883464276266062 0  0.6343932841636455 0.773010453362737 0  0.6531728429537768 0.7572088465064845 0  0.6715589548470183 0.7409511253549591 0  0.6895405447370669 0.7242470829514669 0  0.7071067811865476 0.7071067811865475 0  0.724247082951467 0.6895405447370668 0  0.7409511253549591 0.6715589548470183 0  0.7572088465064846 0.6531728429537768 0  0.773010453362737 0.6343932841636455 0  0.7883464276266063 0.6152315905806268 0  0.8032075314806449 0.5956993044924334 0  0.8175848131515837 0.5758081914178453 0  0.8314696123025452 0.5555702330196022 0  0.8448535652497071 0.5349976198870972 0  0.8577286100002721 0.5141027441932217 0  0.8700869911087115 0.492898192229784 0  0.881921264348355 0.4713967368259976 0  0.8932243011955153 0.4496113296546065 0  0.9039892931234433 0.4275550934302821 0  0.9142097557035307 0.4052413140049899 0  0.9238795325112867 0.3826834323650898 0  0.932992798834739 0.3598950365349881 0  0.9415440651830208 0.3368898533922201 0  0.9495281805930367 0.3136817403988915 0  0.9569403357322088 0.2902846772544623 0  0.9637760657954398 0.2667127574748984 0  0.970031253194544 0.2429801799032639 0  0.9757021300385286 0.2191012401568698 0  0.9807852804032304 0.1950903220161282 0  0.9852776423889412 0.1709618887603012 0  0.989176509964781 0.1467304744553617 0  0.99247953459871 0.1224106751992162 0  0.9951847266721969 0.0980171403295606 0  0.9972904566786902 0.07356456359966743 0  0.9987954562051724 0.04906767432741801 0  0.9996988186962042 0.02454122852291229 0  1 0 0  20 0 0  20 2.5 0  0 2.5 0  -10 2.5 0  10 2.5 0  -10.5 0 0  -5 2.5 0  10.5 0 0  5 2.5 0  -5.75 0 0  5.75 0 0  -15.25 0 0  -15 2.5 0  15.25 0 0  15 2.5 0  -17.625 0 0  -17.5 2.5 0  17.5 2.5 0  17.625 0 0  12.5 2.5 0  12.875 0 0  -12.5 2.5 0  -12.875 0 0  -2.5 2.5 0  2.5 2.5 0  -8.125 0 0  -7.5 2.5 0  8.125 0 0  7.5 2.5 0  -3.375 0 0  3.375 0 0  -18.75 2.5 0  20 1.25 0  16.4375 1.19375 0  -16.25 2.5 0  13.75 2.5 0  -14.0625 0 0  -11.6875 0 0  11.6875 0 0  8.75 2.5 0  -8.75 2.5 0  6.9375 0 0  6.25 2.5 0  -6.25 2.5 0  -9.3125 0 0  -6.9375 0 0  9.3125 0 0  11.25 2.5 0  -11.25 2.5 0  3.75 2.5 0  4.5625 0 0  -4.5625 0 0  -3.75 2.5 0  -13.75 2.5 0  14.0625 0 0  -16.4375 0 0  -20 1.25 0  -18.8125 0 0  18.75 2.5 0  -18.21875 1.2359375 0  18.125 1.278125 0  -15.84375 1.2125 0  -14.375 1.30859375 0  14.65625 1.203125 0  2.1875 0 0  -2.1875 0 0  13.125 1.315625 0  3.125 1.315625 0  -3.125 1.315625 0  -12.28125 1.1890625 0  -5.15625 1.184375 0  11.09375 1.184375 0  5.625 1.325 0  -10.97262068800044 1.220713793599868 0  9.375 1.32734375 0  -6.875 1.32734375 0  -9.67626828410207 1.24449497187193 0  8.061334925608099 1.312208731402025 0  -8.188665074391901 1.312208731402025 0  -1.25 2.5 0  1.25 2.5 0  4.37465139623265 1.41327350462657 0  16.25 2.5 0  6.84375467392576 1.430449641528851 0  1.846573640185365 1.334702047669377 0  -1.846573640185365 1.334702047669377 0  -17.02955351149946 1.396129584721571 0  16.4375 0 0  18.8125 0 0  -13.31314667860176 1.511193493282891 0  -4.122005747945582 0.961844908681634 0  12.12799425205442 0.961844908681634 0  15.54930641305724 1.660405980876393 0  19.0578783583929 0.9559530595267438 0  8.71875 0.6864560603786576 0  -7.53125 0.6864560603786576 0  0.6257799091428734 1.819008129832855 0  -0.6257799091428727 1.819008129832856 0  6.291331569065717 0.7194652423646902 0  -19.11204717950418 0.9044926794710327 0  -4.488713231834613 1.772186102355655 0  11.76128676816539 1.772186102355655 0  -19.28185607205105 1.781856072051052 0  19.30868080343342 1.808680803433421 0  9.90625 0.6371857066656857 0  -6.34375 0.6371857066656857 0  3.796921710049233 0.7617406159238448 0  7.392020585015773 0.7480839107774819 0  -8.910372062800235 0.7929553447587234 0  10.2506781820361 1.451853913138859 0  -5.999321817963904 1.451853913138859 0  4.957643119381741 0.7716423099297361 0  17.29984375 0.8640625 0  15.41193625859067 0.8279888354083842 0  -13.72251704931534 0.7728002662082776 0  16.875 2.5 0  17.12178336313261 1.690954734835967 0  -11.64001625260176 1.74572103154608 0  2.477726735235857 0.7850262278604345 0  13.46875 0 0  13.765625 0.7802887470308788 0  -2.78125 0 0  -2.477726735235857 0.7850262278604346 0  -10.33383379274331 1.744431431923121 0  13.91957519050334 1.653419259628842 0  -15.08147780274903 0.8341506893754731 0  -15.14066649024666 1.671962869821843 0  -8.950686484882164 1.678622661163363 0  -17.55392917606836 0.794731598412167 0  -16.80247533599675 0.6688259240674158 0  -12.94289066923278 0.7766744225472476 0  -9.90625 0 0  -10.31601468672093 0.7730817089126454 0  -18.21875 0 0  -12.28125 0 0  -17.68515668569534 1.768907656575843 0  18.21875 0 0  10.85059123027421 1.880344717307101 0  -5.399408769725794 1.880344717307101 0  -3.738137326223278 1.749164834446819 0  -3.125 2.5 0  12.46235897590077 1.601301060091387 0  -11.09375 0 0  -11.61661448001209 0.7781698802173554 0  -15.625 2.5 0  1.59375 0 0  -1.764022608759088 0.6027229563180789 0  -8.125 2.5 0  8.125 2.5 0  8.713468311289519 1.727645658498745 0  9.375 2.5 0  -7.536531688710481 1.727645658498745 0  -6.875 2.5 0  14.375 2.5 0  17.78381794101733 1.874391370085592 0  18.59891476281433 1.80649740393129 0  -18.58835555265984 1.824268641341969 0  1.806126122135773 0.6510673837470153 0  -16.875 2.5 0  -16.36681393636619 1.755298393865037 0  -16.13072438662071 0.6014017614895231 0  -13.92460230791385 1.83195710210235 0  -14.40198779087891 0.6105385965811564 0  20 0.625 0  19.40625 0 0  14.6875 1.888836596385542 0  14.65625 0 0  12.78248197181444 0.6991460920542635 0  -3.467518028185561 0.6991460920542635 0  13.125 2.5 0  2.491957142932539 1.738660596534321 0  3.125 2.5 0  1.875 2.5 0  3.718973573227002 1.75927763286174 0  -2.491957142932539 1.738660596534321 0  -1.875 2.5 0  -9.375 2.5 0  6.2001972846108 1.772767401802766 0  5.625 2.5 0  5.027483518098582 1.760895488350309 0  5.625981449127788 0.6566963631252629 0  -12.30101114679273 1.859484693920165 0  9.742489932362783 1.884363450023167 0  -6.507510067637216 1.884363450023166 0  1.13492303295015 1.283502262067074
[...]
<PointData  Scalars="f_16364890"> 
<DataArray  type="Float64"  Name="f_16364890"  format="ascii">5.5619717767861196e-03  3.2079336650851576e-03  -3.7446153757975825e-03  3.1901495480045677e-03  -1.1764109193256361e-03  -7.3591693032164424e-04  -3.6773909876127728e-03  -3.2428207198621525e-03  -4.7852156347081651e-03  -3.4998550743965528e-03  -8.1160058958825547e-03  -1.1113264638835279e-02  -1.4421172180482467e-02  -1.6653216736714160e-02  -1.5036713224518697e-02  -1.4872542773766461e-02  -2.2652082773963300e-02  -3.3102543642576178e-02  -3.3505366826747394e-02  -3.2515819947343261e-02  -3.4713210105730669e-02  -3.7530753132345343e-02  -4.0853941153155514e-02  -4.4326308710020149e-02  -4.7672746867739590e-02  -5.1168982557058068e-02  -5.4604559449545745e-02  -5.8317474032544531e-02  -6.1438251856573090e-02  -6.5142449614795650e-02  -6.8745586620644575e-02  -7.1644972934513468e-02  -7.5083780880687068e-02  -7.8410573997986996e-02  -8.1227499833517416e-02  -8.4127233944908369e-02  -8.6045868284748708e-02  -8.8544325497427717e-02  -9.0667333859596147e-02  -9.2159564046807349e-02  -9.3517425793188003e-02  -9.4499838066344793e-02  -9.5124331437918222e-02  -9.5693254495874250e-02  -9.6219275138460653e-02  -8.9867524476391958e-02  -8.9234292287433167e-02  -9.6697768751077134e-02  -9.1453279432746545e-02  -8.7788186345100785e-02  -8.4230790069773270e-02  -8.1122613274102667e-02  -7.7006113805112936e-02  -7.3046410286245408e-02  -6.8002784499918104e-02  -6.2978067537329430e-02  -5.7629545240612361e-02  -5.1577642471921308e-02  -4.5441412152253904e-02  -3.9354981437040699e-02  -3.2225969857350587e-02  -2.5552979910232893e-02  -1.8503462005511145e-02  -1.1334740702057703e-02  -3.8864420677926234e-03  2.9897504647914326e-03  1.0713031472004607e-02  1.7803515512232915e-02  2.5191121639955977e-02  3.2117798467011766e-02  3.9026744870495449e-02  4.5320739685640841e-02  5.2191002469513539e-02  5.8271458196784823e-02  6.4488394781413674e-02  6.9959827987852538e-02  7.5815678428391722e-02  8.2059093938494532e-02  8.0137590830801769e-02  8.1022037868443725e-02  9.2335240519475670e-02  9.3907773628773381e-02  9.6226517750067839e-02  9.7767032125904429e-02  9.9424633248557992e-02  1.0028543570982176e-01  1.0068083727216000e-01  1.0094846328912881e-01  1.0035857912203851e-01  1.0026165172415417e-01  9.8845578765032929e-02  9.7736997873608109e-02  9.5930640740021861e-02  9.3809987660767799e-02  9.1726112982925628e-02  8.8990653817998588e-02  8.6791708213893384e-02  8.3681162371477311e-02  8.0416035371327951e-02  7.7523002114395181e-02  7.4142539826871190e-02  7.0447415804557323e-02  6.6589197036265368e-02  6.3098190685238684e-02  5.9299034788661387e-02  5.5498360090359890e-02  5.1739708000199794e-02  4.8098771921021070e-02  4.3877381302675267e-02  3.9822174037093636e-02  3.5879375826218557e-02  3.2126809577496661e-02  2.9396899992779238e-02  2.9022731524831223e-02  2.1118205154726490e-02  1.9257297751198527e-02  2.4164030374227079e-02  1.8216466939463414e-02  1.7006535953782667e-02  1.9447551442847721e-02  8.4186065099065999e-03  7.3960617661682510e-03  1.1822824336904953e-02  7.3220003353573603e-03  7.5338283368083512e-04  -1.8320120663006430e-03  7.2105457136376690e-04  3.6143478537085686e-03  4.6756753910534338e-04  -1.6929316972084298e-03  -7.2183950523645110e-03  2.9864419265153912e-03  3.7039997742226914e-05  2.2024095397609766e-03  1.6228799900084817e-03  3.4869402445135136e-03  -1.4719190833036679e-03  -1.9123959369251138e-03  8.6060258147875265e-04  8.4787826199553143e-04  -2.9338814739797402e-03  -7.1123533740938601e-03  -2.3051126442398219e-03  9.9651694552990917e-04  1.1558674964681484e-03  -4.1300805253195711e-04  -4.1915070306207928e-04  -2.2134484574509367e-03  -3.0788076385373465e-03  1.0084213616788565e-02  2.8837866526780342e-03  -2.7718861084079075e-03  -1.9918238939426840e-03  -3.8054872026098813e-03  -6.4459617755969929e-03  5.8654772093834286e-04  5.3372490650716118e-03  1.8327737275611194e-03  -7.5349356564251616e-04  3.1494896481194510e-03  1.1311597231073941e-03  5.3892721201050896e-03  -5.9067410513181516e-04  -5.0389529320503338e-03  -2.6651369188382145e-03  -3.9049644811494630e-04  6.4885957743244583e-04  4.5191320030665637e-04  -4.9501015845594782e-03  -3.4561761403104586e-03  6.9166506240915179e-04  3.9891596606843067e-03  -4.2646375606092508e-03  -2.0943017938457973e-04  -3.9264677397500645e-03  2.4882599936475350e-03  -2.6587214118051535e-03  -7.0550623448670411e-03  -5.2246175783276392e-03  -1.4882477335771598e-03  1.8536962820625660e-03  -2.9610880446299553e-03  -9.7283866106285758e-03  -3.1675961892989163e-03  1.2387911660867272e-03  2.1672557182367148e-03  -3.5708078952860329e-03  -1.2225125082595130e-04  -5.9030792175495585e-03  -9.1595364184897377e-04  -2.5591089414108911e-03  8.4485513247350714e-04  -1.7967714774009330e-03  -9.9530879662247294e-04  3.1668668749144159e-04  1.7584730884934008e-02  -1.9638613774400650e-02  -1.8111759792466453e-03  -1.1799935610803444e-03  4.2587514250777688e-03  -4.3939589851322560e-03  -3.8787930000815109e-03  1.0167304223365143e-03  -4.2801607227933896e-04  2.3845471297086300e-03  1.8001192369618410e-03  1.2272077166652236e-03  1.0511839424509754e-03  -1.1268062007855953e-03  -1.2058019101488025e-03  8.5764733312679981e-04  3.0799499465174385e-04  -1.4426041263308096e-03  1.7354965438205997e-03  -1.3537975012033413e-03  -1.1175237102728405e-02  8.9118578361749735e-03  1.0193578706064179e-03  5.2219100198331383e-03  7.6575511414484444e-03  -8.1789950990810779e-04  2.9235070468427321e-03  -3.6517618135583024e-04  -1.0650463961079512e-03  5.2638617719807663e-04  1.1386576306342206e-03  -1.3058619235071906e-03  -2.2332538426974802e-02  2.2289358274087998e-02  1.2785499007154002e-03  -1.4246261139277850e-03  7.5683297034412180e-03  -3.9252010361814541e-04  4.7276943805282898e-04  -6.9673363768033483e-03  2.6669409443873934e-03  -2.7115983541725142e-03  -3.2247253858589354e-03  -2.3310194466801015e-03  2.2328063931112443e-04  -1.3400083926085203e-03  -4.2619625062867202e-03  9.8344432085094562e-04  9.6966566541334496e-05  4.0405598014550854e-03  1.8531357891908911e-03  -1.6615438351585184e-03  -1.0436513691916094e-03  -1.7351603617379409e-03  6.0368169932345783e-03  1.3865268186488719e-03  -5.0328412552443051e-05  -1.6420328390072975e-03  -3.7259635221637069e-03  -2.0545915491729905e-04  1.0331769115595232e-04  -3.2286386542000407e-03  -4.9268251817222034e-03  -1.2963053486943418e-03  -5.9893902183949330e-03  -1.2351936786769270e-03  3.3532635779964528e-03  1.6881531330084057e-03  -3.5739989375250815e-03  2.2625723669743463e-03  7.0911847142002861e-03  -9.5375925391388914e-04  1.1711646498421195e-03  -6.7322662534679103e-04  2.3388942557498529e-03  7.2034922350040567e-03  1.3495641895885330e-03  7.8551737778063523e-04  -4.3731577501251043e-03  3.0528204293401645e-03  -3.4905553832610230e-03  2.9913592681597972e-02  -1.5865023749299691e-02  3.3691627804285007e-03  -3.0088585590241261e-04  -4.1248695022384378e-04  -1.4156749622683932e-03  -1.5090604158684900e-04  -5.8416694168953861e-03  -2.4885819470917211e-03  -6.0616703731425669e-05  -3.4663471971154499e-04  -2.2336235302625900e-03  1.3831964825380943e-02  2.6243790677082024e-04  2.4358313311206360e-03  -5.4677622881568104e-04  3.0080386991958893e-03  1.0212606392133378e-03  -1.3727308106420873e-02  1.2028893025962136e-02  -2.4025160613008086e-03  5.4642138907168404e-03  5.6469562202841655e-04  -1.1722947335139416e-03  5.8684938942987772e-03  -8.5521858917917640e-03  -1.7105023342778095e-03  8.8143125754113275e-04  1.4289130687011712e-04  8.2213979956425216e-03  1.1962900690698883e-03  7.8834084119788241e-04  1.3423754201459847e-03  1.8710306812735842e-04  1.2092452976122956e-03  -7.9790806311836812e-04  7.8308274629549604e-04  2.5552443159412930e-03  -1.9926823916186854e-03  -1.0906838904839405e-02  1.1523600650665985e-02  -1.8599920488320872e-03  -4.2176028837651952e-04  1.5660490867454074e-03  2.4440137986195998e-03  -1.9235826612918718e-03  3.3149911683371816e-03  2.7281419683457073e-03  4.7940749243258109e-04  -2.7965905799097524e-03  2.0507815402079823e-03  -3.2309046403920364e-03  2.1809099319575646e-02  -2.2747381387335341e-02  1.5085043655580232e-03  2.3387245797170677e-03  4.1194447394122605e-03  1.6052252462286261e-03  -3.2045528099358812e-03  3.7673323480803112e-04  1.7864545432319614e-03  1.4821027861988787e-03  -1.1922402945619396e-04  7.9218831036099687e-04  6.0154007302106729e-04  5.8222210343028651e-03  3.1299098688984061e-03  -1.4521436992878500e-03  1.4254494471238255e-03  2.1840776507780863e-03  -3.5664516382597428e-03  -2.2357458137750285e-04  -1.6401833938982551e-03  1.7800080712600076e-04  -1.5091050826046535e-03  1.8221770568452678e-03  -5.2903528886386368e-04  2.3916764636209985e-03  1.8415560476906384e-03  -2.1575546716008379e-02  7.1389753361949919e-04  1.3424187725061048e-03  -2.6726419902582742e-03  4.8214134171511492e-04  -1.9666229039229013e-03  1.5441601464323855e-03  -1.9474197877754535e-03  5.0840041312917540e-03  -2.3865296749802341e-03  1.3976448568409165e-03  1.0541236017780880e-03  -2.4389320543877088e-04  -2.4518997813272676e-03  6.9358022738072716e-04  -1.1123895338270465e-03  -2.8809678651459735e-02  9.2548702733055840e-04  -2.9454078869319833e-03  3.3875821891564653e-03  1.1983643831345613e-03  3.3375985427030667e-03  7.1856701761231741e-03  1.0483451386837980e-03  -4.3275522586942641e-03  5.1332504977116590e-03  -7.8266158449984613e-04  -2.1365987490424613e-03  -2.4180113365649568e-03  5.1563169245051263e-03  1.2322121683884140e-02  1.5797412474904135e-03  -3.3767013546260418e-03  1.2219196137395478e-03  5.8325176005539700e-03  2.6314619202918413e-04  2.6398060108508473e-04  -1.7731769544820919e-04  -2.0050065597472522e-03  1.2616425634697128e-03  -4.1099403175724634e-03  4.9151088181723628e-03  6.8216898036557716e-04  1.2909007710959332e-03  4.3928490245257124e-04  5.3668725128597509e-04  1.2515786722163643e-03  1.2926542352529574e-03  -8.9949015221372193e-05  -2.5292684975032433e-03  3.0246504060005329e-04  2.3070501016774761e-03  2.1804848441711916e-03  7.2073376050656244e-04  1.3020215499923318e-03  1.3602806571823555e-04  -1.7958125263965515e-04  8.3049095266367931e-04  -2.5073705781625509e-03  -6.5091968592456814e-04  -2.7312129393399168e-03  -1.8732279910894602e-03  -3.8051690199272809e-03  1.0482279448798808e-03  1.8867665816005373e-03  -2.4228090579487668e-04  -1.8137214597455970e-03  2.7298279375331169e-03  -1.2236984155039867e-03  1.1665705397804944e-03  1.8650713638163339e-03  -4.0492719285825382e-03  2.3129742105457880e-03  -1.3530256792753685e-03  1.3034793392344942e-03  6.5987711473355448e-04  -1.9446103202364762e-05  6.7749276594086924e-04  7.3606840449406356e-03  -1.0676299234675351e-02  2.9817184032116634e-04  1.1732567262194872e-03  1.6472330089167251e-03  -2.8614174050182483e-03  1.2512430433758766e-04  -6.1119750293706597e-04  -9.5574041345223638e-04  2.7740559186883947e-04  -1.2137710896321025e-03  1.9273987360040101e-02  -1.5417543348904233e-03  -3.0804124117448425e-03  9.2987123619724492e-03  -3.6037097768242498e-04  -2.7591736157829699e-03  -2.3240225308749298e-03  -6.4946451840682993e-04  1.0961743286152393e-03  -1.6255045079450216e-02  2.5929985875015129e-02  -2.4276705028950980e-02  -8.3056798917694255e-03  1.2716933026956107e-03  -3.0868912944458662e-03  7.5074698578817189e-03  -1.9269734108132966e-03  1.3173017106598685e-03  1.6793936974714254e-03  -7.8371246249931484e-03  9.7598407556537276e-03  -1.0514386153145032e-03  2.0983814895301823e-03  2.4408723475869819e-03  3.5386009815167254e-03  2.7472297881123500e-03  2.6646919665904759e-03  1.2574375853069118e-03  2.4167107210547908e-03  -1.7752061303505165e-03  3.9529585603435904e-03  -2.1895885570904078e-03  -1.6128511954672029e-04  7.0655728164235225e-04  -4.2347111085216989e-03  9.3665750464382708e-04  3.2652987874804334e-04  -7.9867722967709367e-05  -3.7680857537537399e-04  7.0979396022017088e-03  -3.9944224797982871e-03  -1.9021730848498917e-03  3.1848314486897429e-03  4.2150373172065757e-03  8.5616627377284825e-04  1.4665478877503814e-03  1.7465416805690953e-03  1.0660615988221014e-03  -2.0502922874012629e-03  -3.8729187996370032e-03  3.3287505078743412e-03  -1.5122284073319455e-03  -7.1076736336254313e-04  2.1128551816913047e-03  6.3250920754624827e-04  -3.0511775692640786e-03  1.6513802378040946e-03  7.3045542971200705e-04  3.2102924799497119e-03  -2.2249434704813211e-03  -4.6350530307046481e-03  -1.8601730899163839e-03  -1.5887521987834126e-03  -1.6599774959549453e-03  -3.1676606897809421e-03  1.2050977799480075e-03  -2.5745625687416218e-03  -1.8339478330779051e-03  3.4026316358805103e-04  1.3795042138145136e-03  3.6087021634614563e-03  -3.9610786241436472e-03  -2.1458633119991041e-03  1.7534515383971210e-03  3.0427593235928941e-03  4.6472505570759794e-03  1.7243380023102745e-03  7.1659186787665231e-04  -2.5254725922514883e-03  2.4656223462277754e-03  1.9800467400505242e-02  2.7109292790821814e-03  -2.8098522181890788e-02  -4.0994965340912878e-04  -5.0436242868223688e-03  2.0218615498681985e-03  1.5564148560365839e-02  3.7731821427318415e-03  8.1014819851157513e-04  -2.6905368407059930e-03  7.7948001955208774e-04  -3.5848266172611073e-04  7.3528156256637820e-04  -8.1914199236449972e-04  -6.0018603437314122e-04  4.1061487957241764e-05  -2.4259991507595020e-03  9.7890053262224557e-04  -1.6059934356055061e-05  -6.3607637177755293e-04  -2.9247684719271877e-04  3.7437800557870897e-03  2.1147484845326754e-04  3.2224236944644476e-03  1.6943102246440491e-03  6.4289092524671227e-03  1.3204194333671362e-03  8.2560223182502222e-04  -8.1882196001412232e-03  8.1730038810463833e-03  1.9583190821565208e-03  -4.4951965078239842e-03  -4.1672611074726078e-04  -1.9147724333219329e-03  3.3029100690833276e-03  -1.7629291472444429e-03  7.6288694831659382e-04  3.0996206951982401e-03  -1.9681794202717987e-03  4.6755582097813466e-03  -1.6794691403849502e-03  -4.3197343218650463e-03  4.7579205096837246e-03  -2.1613717807932717e-04  4.4906478431964910e-04  -1.3624628522650175e-02  -2.3838478185713038e-03  1.0577792265887023e-04  9.0988671182756710e-04  -1.0277696324152094e-04  1.6586715420784722e-04  3.2778527455504434e-03  1.8142888938266029e-04  -4.6871424865558875e-04  1.0562707323582366e-03  2.0549252161725360e-03  -2.2502358187373259e-03  -1.7819920857940548e-03  2.9328271523603070e-02  5.1170024535600333e-04  2.5102164709817948e-03  6.4784458453036374e-04  3.4338227968671285e-04  -1.0831024030120650e-03  -2.9922671162171104e-03  -1.4669811272410562e-03  -1.3651096528234385e-03  3.5098202581665904e-03  -1.4617174818014403e-03  1.0340412868386228e-03  -8.2317393471122795e-05  5.1812026860486541e-04  -1.7995885058668586e-03  2.5203592815685404e-03  7.6517858052534279e-04  3.4686045764010143e-03  1.3829963793293154e-03  -2.9719353025984760e-03  -3.3140829786258465e-03  -1.8106948902609819e-04  1.3622766773029337e-03  -2.8603544996193601e-03  -1.9458873446654517e-02  -4.0283238891795749e-03  5.5050825543515747e-03  -8.5983374000125415e-03  1.2391769204015001e-03  -1.6933743660894061e-03  -6.5906836123103777e-03  2.7853361035111454e-05  -3.4232635524170307e-03  1.5625155018368347e-03  -3.4892615290291179e-04  2.8074824103724179e-03  -1.1909715940710041e-03  -4.0002408683772282e-03  3.3335224313339653e-03  -8.5358592974512889e-04  -6.0307106231134617e-05  7.4330512549991340e-04  1.7395268771155067e-03  7.3105434963061382e-04  3.9632302623540108e-03  1.9775368372629786e-02  -3.1080372640493710e-03  -9.5346158334281333e-05  -2.4642808838556559e-03  1.2832317792880600e-03  3.2138444488272206e-03  -1.0026132720820111e-03  3.0049268062005475e-04  -6.4819529465637510e-03  -2.2010845262183851e-03  2.3049071099195761e-04  -2.1752888643778012e-03  5.8265029634926564e-04  1.6187053253220701e-02  4.7222475875742189e-04  1.6536338132944548e-03  -3.7352540259602308e-03  8.1059291326538669e-05  -2.5548183412586578e-02  8.0788407626486381e-04  4.0350348431015658e-03  -4.4599241444285963e-03  4.9205690392637334e-03  2.9864963350950372e-03  3.2645143377759019e-03  -3.4197018249598776e-03  1.0740540908960243e-03  1.0172496262810578e-03  -6.7712264103169685e-04  1.9523055469617215e-03  -6.3377980189728306e-04  1.6739342551329325e-03  5.5996755762484623e-04  2.5805115107728981e-03  -6.2936860590848890e-04  3.7238998413777837e-04  -1.1782823945763621e-03  2.5307022474962025e-03  -4.3624429749905859e-03  -2.8985879237212273e-03  -2.9118549505178761e-04  1.4552172248890960e-03  -9.6302325635602400e-04  -5.2757723198961219e-04  -1.9650558692591567e-04  -2.8956352258264896e-03  -1.6320861319317936e-02  -1.5546773312956640e-02  -1.6018249686216054e-02  9.6334444608544255e-03  1.9307283743306567e-02  -5.3372390517938603e-04  2.1260108954404776e-03  1.7008092852317169e-03  7.6810015450167997e-04  -1.0676722984865974e-03  6.1067376528118854e-03  -2.8641123582638433e-03  -9.4109056355426597e-04  -1.5391027982868881e-03  1.2735443823076575e-02  -4.6432715545638385e-03  -1.2228449688699284e-03  4.2000752707748333e-03  4.8331070745182819e-03  -4.4219206320765207e-03  1.2554011427313892e-03  -5.4176689586747687e-05  -5.6738583830579870e-04  2.0704000443937318e-02  4.5545051439239130e-04  -2.1822665764829178e-03  -4.8526285771521518e-04  -7.3022014924278714e-04  -4.1107694762861004e-04  -7.6830863851178989e-03  2.2824415812290806e-03  3.4435658781680999e-03  -2.6765820577717282e-03  1.8812193304326812e-05  8.0498535500163673e-04  -3.7655900712704514e-03  -1.6245235469342404e-03  -4.0409093750489898e-03  -2.6889229365526170e-03  -4.0410903986328782e-03  3.9148442403847978e-03  8.8156921818990615e-04  -1.6373346048897039e-03  3.0666093102851011e-03  -3.4830026502866624e-03  2.5948269566188303e-04  1.3408810356866005e-03  5.1163526738629104e-04  1.1614045681419987e-03  -4.5788878903756953e-03  -1.0181063547076699e-03  -3.6612864619589396e-04  1.1500782424536905e-03  1.8382813537370652e-03  -1.7755732627543325e-03  -2.4773771423445366e-02  2.5014144991723233e-02  -1.2785187372891045e-03  -1.7189974300100888e-03  8.1360791002496027e-04  6.6387288910504190e-04  1.1254384307134237e-02  2.4701706365598737e-03  -1.5548857596719659e-02  -3.8743366059224983e-03  -2.2443960486150682e-03  -2.2953837057207859e-03  -6.4735864818986171e-04  5.1166656136633973e-03  -2.5053468739080821e-03  9.4408835520232463e-05  -5.1876616695780213e-05  -4.6355872507435503e-04  1.3849309760938363e-03  1.7071185572090398e-03  -3.7898372253722095e-03  -2.0375472503990442e-04  2.7074997253682654e-03  1.4049960508488403e-03  -2.8799347805721779e-04  1.0917906914584686e-02  1.5382647548560075e-03  3.7323117922872040e-03  1.1383133543204538e-03  -5.6711543724637676e-03  7.7557959813577266e-04  -6.7822811931394773e-04  -3.1246079845448642e-03  -7.7172678085549412e-04  5.5887593285808852e-03  -3.2966268388026515e-03  -5.0124501217566004e-03  -4.1722894827890718e-03  -1.4939484784556127e-03  3.5972842136690461e-03  -2.4853029617016202e-03  2.5287563421850872e-03  -8.5952560272807923e-04  -2.0361418504059886e-04  2.9617449500292255e-03  -7.3333680873047984e-04  -9.9360758892595995e-04  6.8862790774882669e-06  -1.4414413645912547e-03  -1.1503827452353193e-03  -2.4734921523060674e-03  -4.1713552100928761e-03  1.6416976360277653e-03  3.9179440437828633e-04  1.5650899279550254e-02  -1.7753689462040163e-02  -1.4757775714017497e-02  8.5839007879797650e-04  -7.1352972721092978e-04  3.3290232236221811e-03  -2.1295059569291879e-04  -2.1611613240976029e-03  4.5350724609408865e-04  7.7622576439749633e-04  -4.6185786407151327e-04  -5.4642719986576320e-04  3.8842131495500610e-04  2.2222985812184732e-03  2.1806983295954928e-03  -2.3788938231120360e-03  -4.0820657198578523e-03  -9.0658878930063662e-04  2.7645016876257232e-03  -8.9431684700834405e-03  -1.9536681426601107e-03  -2.6038531977031671e-02  2.2296597933193996e-02  1.8526664636435191e-02  -1.3633157855555338e-04  -5.2148831023414736e-04  -1.4429062304526974e-04  2.1858612656171115e-03  -1.2936244003325329e-03  4.7183628970411317e-03  -1.99978173756613