<?xml version="1.0"?>
<VTKFile type="UnstructuredGrid"  version="0.1"  >
<UnstructuredGrid>
<Piece  NumberOfPoints="2937" NumberOfCells="5112">
<Points>
<DataArray  type="Float64"  NumberOfComponents="3"  format="ascii">-20 2.5 0  -20 0 0  -1 0 0  -0.9996988186962042 0.02454122852291233 0  -0.9987954562051724 0.04906767432741797 0  -0.9972904566786902 0.07356456359966773 0  -0.9951847266721968 0.09801714032956083 0  -0.99247953459871 0.1224106751992163 0  -0.989176509964781 0.1467304744553618 0  -0.9852776423889412 0.1709618887603012 0  -0.9807852804032304 0.1950903220161286 0  -0.9757021300385285 0.21910124015687 0  -0.970031253194544 0.2429801799032641 0  -0.9637760657954398 0.2667127574748985 0  -0.9569403357322088 0.2902846772544624 0  -0.9495281805930367 0.3136817403988914 0  -0.9415440651830207 0.3368898533922203 0  -0.9329927988347388 0.3598950365349883 0  -0.9238795325112867 0.3826834323650899 0  -0.9142097557035307 0.4052413140049899 0  -0.9039892931234433 0.427555093430282 0  -0.8932243011955152 0.4496113296546069 0  -0.8819212643483549 0.4713967368259979 0  -0.8700869911087113 0.4928981922297841 0  -0.857728610000272 0.5141027441932218 0  -0.8448535652497071 0.5349976198870972 0  -0.8314696123025453 0.5555702330196022 0  -0.8175848131515836 0.5758081914178454 0  -0.8032075314806448 0.5956993044924335 0  -0.7883464276266062 0.6152315905806269 0  -0.773010453362737 0.6343932841636455 0  -0.7572088465064846 0.6531728429537766 0  -0.7409511253549589 0.6715589548470186 0  -0.7242470829514668 0.6895405447370671 0  -0.7071067811865475 0.7071067811865476 0  -0.6895405447370669 0.7242470829514669 0  -0.6715589548470184 0.740951125354959 0  -0.6531728429537765 0.7572088465064847 0  -0.6343932841636454 0.7730104533627371 0  -0.6152315905806267 0.7883464276266063 0  -0.5956993044924334 0.8032075314806449 0  -0.5758081914178453 0.8175848131515837 0  -0.555570233019602 0.8314696123025455 0  -0.534997619887097 0.8448535652497072 0  -0.5141027441932217 0.8577286100002721 0  -0.492898192229784 0.8700869911087115 0  -0.4713967368259977 0.881921264348355 0  -0.4496113296546067 0.8932243011955152 0  -0.4275550934302819 0.9039892931234434 0  -0.4052413140049897 0.9142097557035307 0  -0.3826834323650897 0.9238795325112867 0  -0.3598950365349882 0.9329927988347388 0  -0.3368898533922199 0.9415440651830208 0  -0.3136817403988914 0.9495281805930367 0  -0.2902846772544622 0.9569403357322089 0  -0.2667127574748983 0.9637760657954398 0  -0.2429801799032639 0.970031253194544 0  -0.2191012401568697 0.9757021300385286 0  -0.1950903220161282 0.9807852804032304 0  -0.1709618887603012 0.9852776423889412 0  -0.1467304744553616 0.989176509964781 0  -0.1224106751992162 0.99247953459871 0  -0.09801714032956065 0.9951847266721969 0  -0.07356456359966733 0.9972904566786902 0  -0.04906767432741801 0.9987954562051724 0  -0.02454122852291214 0.9996988186962042 0  6.123233995736766e-17 1 0  0.02454122852291226 0.9996988186962042 0  0.04906767432741813 0.9987954562051724 0  0.07356456359966745 0.9972904566786902 0  0.09801714032956077 0.9951847266721968 0  0.1224106751992163 0.99247953459871 0  0.1467304744553617 0.989176509964781 0  0.1709618887603014 0.9852776423889412 0  0.1950903220161283 0.9807852804032304 0  0.2191012401568698 0.9757021300385286 0  0.242980179903264 0.970031253194544 0  0.2667127574748984 0.9637760657954398 0  0.2902846772544623 0.9569403357322089 0  0.3136817403988916 0.9495281805930367 0  0.3368898533922201 0.9415440651830208 0  0.3598950365349883 0.9329927988347388 0  0.3826834323650898 0.9238795325112867 0  0.4052413140049899 0.9142097557035307 0  0.4275550934302822 0.9039892931234433 0  0.4496113296546066 0.8932243011955153 0  0.4713967368259978 0.8819212643483549 0  0.4928981922297841 0.8700869911087113 0  0.5141027441932217 0.8577286100002721 0  0.5349976198870973 0.844853565249707 0  0.5555702330196023 0.8314696123025452 0  0.5758081914178453 0.8175848131515837 0  0.5956993044924335 0.8032075314806448 0  0.6152315905806268 0.7883464276266062 0  0.6343932841636455 0.773010453362737 0  0.6531728429537768 0.7572088465064845 0  0.6715589548470183 0.7409511253549591 0  0.6895405447370669 0.7242470829514669 0  0.7071067811865476 0.7071067811865475 0  0.724247082951467 0.6895405447370668 0  0.7409511253549591 0.6715589548470183 0  0.7572088465064846 0.6531728429537768 0  0.773010453362737 0.6343932841636455 0  0.7883464276266063 0.6152315905806268 0  0.8032075314806449 0.5956993044924334 0  0.8175848131515837 0.5758081914178453 0  0.8314696123025452 0.5555702330196022 0  0.8448535652497071 0.5349976198870972 0  0.8577286100002721 0.5141027441932217 0  0.8700869911087115 0.492898192229784 0  0.881921264348355 0.4713967368259976 0  0.8932243011955153 0.4496113296546065 0  0.9039892931234433 0.4275550934302821 0  0.9142097557035307 0.4052413140049899 0  0.9238795325112867 0.3826834323650898 0  0.932992798834739 0.3598950365349881 0  0.9415440651830208 0.3368898533922201 0  0.9495281805930367 0.3136817403988915 0  0.9569403357322088 0.2902846772544623 0  0.9637760657954398 0.2667127574748984 0  0.970031253194544 0.2429801799032639 0  0.9757021300385286 0.2191012401568698 0  0.9807852804032304 0.1950903220161282 0  0.9852776423889412 0.1709618887603012 0  0.989176509964781 0.1467304744553617 0  0.99247953459871 0.1224106751992162 0  0.9951847266721969 0.0980171403295606 0  0.9972904566786902 0.07356456359966743 0  0.9987954562051724 0.04906767432741801 0  0.9996988186962042 0.02454122852291229 0  1 0 0  20 0 0  20 2.5 0  0 2.5 0  -10 2.5 0  10 2.5 0  -10.5 0 0  -5 2.5 0  10.5 0 0  5 2.5 0  -5.75 0 0  5.75 0 0  -15.25 0 0  -15 2.5 0  15.25 0 0  15 2.5 0  -17.625 0 0  -17.5 2.5 0  17.5 2.5 0  17.625 0 0  12.5 2.5 0  12.875 0 0  -12.5 2.5 0  -12.875 0 0  -2.5 2.5 0  2.5 2.5 0  -8.125 0 0  -7.5 2.5 0  8.125 0 0  7.5 2.5 0  -3.375 0 0  3.375 0 0  -18.75 2.5 0  20 1.25 0  16.4375 1.19375 0  -16.25 2.5 0  13.75 2.5 0  -14.0625 0 0  -11.6875 0 0  11.6875 0 0  8.75 2.5 0  -8.75 2.5 0  6.9375 0 0  6.25 2.5 0  -6.25 2.5 0  -9.3125 0 0  -6.9375 0 0  9.3125 0 0  11.25 2.5 0  -11.25 2.5 0  3.75 2.5 0  4.5625 0 0  -4.5625 0 0  -3.75 2.5 0  -13.75 2.5 0  14.0625 0 0  -16.4375 0 0  -20 1.25 0  -18.8125 0 0  18.75 2.5 0  -18.21875 1.2359375 0  18.125 1.278125 0  -15.84375 1.2125 0  -14.375 1.30859375 0  14.65625 1.203125 0  2.1875 0 0  -2.1875 0 0  13.125 1.315625 0  3.125 1.315625 0  -3.125 1.315625 0  -12.28125 1.1890625 0  -5.15625 1.184375 0  11.09375 1.184375 0  5.625 1.325 0  -10.97262068800044 1.220713793599868 0  9.375 1.32734375 0  -6.875 1.32734375 0  -9.67626828410207 1.24449497187193 0  8.061334925608099 1.312208731402025 0  -8.188665074391901 1.312208731402025 0  -1.25 2.5 0  1.25 2.5 0  4.37465139623265 1.41327350462657 0  16.25 2.5 0  6.84375467392576 1.430449641528851 0  -1.846573640185365 1.334702047669377 0  1.846573640185365 1.334702047669377 0  -17.02955351149946 1.396129584721571 0  16.4375 0 0  18.8125 0 0  -13.31314667860176 1.511193493282891 0  -4.122005747945582 0.961844908681634 0  12.12799425205442 0.961844908681634 0  15.54930641305724 1.660405980876393 0  19.0578783583929 0.9559530595267438 0  8.71875 0.6864560603786576 0  -7.53125 0.6864560603786576 0  -0.6257799091428727 1.819008129832856 0  0.6257799091428734 1.819008129832855 0  6.291331569065717 0.7194652423646902 0  -19.11204717950418 0.9044926794710327 0  -4.488713231834613 1.772186102355655 0  11.76128676816539 1.772186102355655 0  -19.28185607205105 1.781856072051052 0  19.30868080343342 1.808680803433421 0  9.90625 0.6371857066656857 0  -6.34375 0.6371857066656857 0  3.796921710049233 0.7617406159238448 0  7.392020585015773 0.7480839107774819 0  -8.910372062800235 0.7929553447587234 0  10.2506781820361 1.451853913138859 0  -5.999321817963904 1.451853913138859 0  4.957643119381741 0.7716423099297361 0  17.29984375 0.8640625 0  15.41193625859067 0.8279888354083842 0  -13.72251704931534 0.7728002662082776 0  16.875 2.5 0  17.12178336313261 1.690954734835967 0  -11.64001625260176 1.74572103154608 0  2.477726735235857 0.7850262278604345 0  13.46875 0 0  13.765625 0.7802887470308788 0  -2.78125 0 0  -2.477726735235857 0.7850262278604346 0  -10.33383379274331 1.744431431923121 0  13.91957519050334 1.653419259628842 0  -15.08147780274903 0.8341506893754731 0  -15.14066649024666 1.671962869821843 0  -8.950686484882164 1.678622661163363 0  -17.55392917606836 0.794731598412167 0  -16.80247533599675 0.6688259240674158 0  -12.94289066923278 0.7766744225472476 0  -9.90625 0 0  -10.31601468672093 0.7730817089126454 0  -18.21875 0 0  -12.28125 0 0  -17.68515668569534 1.768907656575843 0  18.21875 0 0  10.85059123027421 1.880344717307101 0  -5.399408769725794 1.880344717307101 0  -3.738137326223278 1.749164834446819 0  -3.125 2.5 0  12.46235897590077 1.601301060091387 0  -11.09375 0 0  -11.61661448001209 0.7781698802173554 0  -15.625 2.5 0  -1.764022608759088 0.6027229563180789 0  1.59375 0 0  -8.125 2.5 0  8.125 2.5 0  8.713468311289519 1.727645658498745 0  9.375 2.5 0  -7.536531688710481 1.727645658498745 0  -6.875 2.5 0  14.375 2.5 0  17.78381794101733 1.874391370085592 0  18.59891476281433 1.80649740393129 0  -18.58835555265984 1.824268641341969 0  1.806126122135773 0.6510673837470153 0  -16.875 2.5 0  -16.36681393636619 1.755298393865037 0  -16.13072438662071 0.6014017614895231 0  -13.92460230791385 1.83195710210235 0  -14.40198779087891 0.6105385965811564 0  20 0.625 0  19.40625 0 0  14.6875 1.888836596385542 0  14.65625 0 0  12.78248197181444 0.6991460920542635 0  -3.467518028185561 0.6991460920542635 0  13.125 2.5 0  2.491957142932539 1.738660596534321 0  3.125 2.5 0  1.875 2.5 0  3.718973573227002 1.75927763286174 0  -2.491957142932539 1.738660596534321 0  -1.875 2.5 0  -9.375 2.5 0  6.2001972846108 1.772767401802766 0  5.625 2.5 0  5.027483518098582 1.760895488350309 0  5.625981449127788 0.6566963631252629 0  -12.30101114679273 1.859484693920165 0  9.742489932362783 1.884363450023167 0  -6.507510067637216 1.884363450023166 0  1.13492303295015 1.283502262067074
[...]
<PointData  Scalars="f_6496986"> 
<DataArray  type="Float64"  Name="f_6496986"  format="ascii">1.0001208605360834e+00  9.9995870464235481e-01  1.0005920957416257e+00  1.0005684306397880e+00  1.0005995468306970e+00  1.0013392844953948e+00  1.0017166874830641e+00  1.0019292147806638e+00  1.0027598025802786e+00  1.0034947496010060e+00  1.0039265271035707e+00  1.0055437119240209e+00  1.0069528442578113e+00  1.0080035991175107e+00  1.0087455815199948e+00  1.0095578066990478e+00  1.0110111673867610e+00  1.0123157282386011e+00  1.0138995433026385e+00  1.0152932320846189e+00  1.0163926688507172e+00  1.0181054039706943e+00  1.0199748303696947e+00  1.0212620763281197e+00  1.0230200866137154e+00  1.0246945873284734e+00  1.0263371295628050e+00  1.0278924242473295e+00  1.0292498086630255e+00  1.0307094923377309e+00  1.0320645954202632e+00  1.0334623598736719e+00  1.0350718344537846e+00  1.0360707737173482e+00  1.0373266752888113e+00  1.0384383905768781e+00  1.0390553310069575e+00  1.0403284627942482e+00  1.0409295990163019e+00  1.0412710337525974e+00  1.0419521254065214e+00  1.0425635342026645e+00  1.0427873032596580e+00  1.0423470813666178e+00  1.0421243808158329e+00  1.0417016574820845e+00  1.0400506506960066e+00  1.0410913100000756e+00  1.0407524461973610e+00  1.0402274186378460e+00  1.0385449650506706e+00  1.0369377148397301e+00  1.0358262887156451e+00  1.0344211877115697e+00  1.0320450921403710e+00  1.0298155803025748e+00  1.0274992453335767e+00  1.0262390269234738e+00  1.0237058048093293e+00  1.0210564970271121e+00  1.0195056328076113e+00  1.0168092613134119e+00  1.0140381611237534e+00  1.0117931893969412e+00  1.0090747308008787e+00  1.0064625741636288e+00  1.0035439310678442e+00  1.0008372479632053e+00  9.9813156690079419e-01  9.9539731233870743e-01  9.9261684733564337e-01  9.9007218477018932e-01  9.8765451349269429e-01  9.8461505963483631e-01  9.8221753546142399e-01  9.8014346529252738e-01  9.7796224016472644e-01  9.7452190349199896e-01  9.7453071767605293e-01  9.7270033257621435e-01  9.7022657868286433e-01  9.6788287686262364e-01  9.6663150285119315e-01  9.6547652593812894e-01  9.6420507762835350e-01  9.6312334937568522e-01  9.6251622217653421e-01  9.6161421171442341e-01  9.6096503938397448e-01  9.6106595828486274e-01  9.6106413337635621e-01  9.6060842174782057e-01  9.6085018431946778e-01  9.6136386797760953e-01  9.6177656026766623e-01  9.6190548282421773e-01  9.6269356535670914e-01  9.6367226697846575e-01  9.6434074684674265e-01  9.6544473969421962e-01  9.6665650311790452e-01  9.6779751387072133e-01  9.6886953394011954e-01  9.7034677472247755e-01  9.7177752633839076e-01  9.7327878704257031e-01  9.7453856834172536e-01  9.7606006518993726e-01  9.7742349397275508e-01  9.7920974378530656e-01  9.8081516551936032e-01  9.8204288635136128e-01  9.8344263611736327e-01  9.8513121427654049e-01  9.8640255053794001e-01  9.8792396135318017e-01  9.8908122719871527e-01  9.9074703741793280e-01  9.9182728394283926e-01  9.9295629559241405e-01  9.9329400090517161e-01  9.9448940965296750e-01  9.9552087263155697e-01  9.9654496964320238e-01  9.9746189753844317e-01  9.9787764036798499e-01  9.9837464496339023e-01  9.9876865343540888e-01  9.9927751970868273e-01  9.9951808994507096e-01  9.9940790905755428e-01  9.9999999964059827e-01  1.0000000001304477e+00  1.0005014671826182e+00  9.9999999225712821e-01  1.0000000100144395e+00  1.0000000317208710e+00  9.9994639886864345e-01  9.9999996000454039e-01  1.0000537846408399e+00  1.0001253947725799e+00  9.9987520815779973e-01  9.9999530537052450e-01  1.0000008714721123e+00  9.9999999953000018e-01  9.9999999949079965e-01  9.9995510995663051e-01  1.0000212734221881e+00  1.0000000008076371e+00  9.9999999040362320e-01  9.9999999933515316e-01  1.0000000002675906e+00  1.0000000127460005e+00  9.9999982714948688e-01  9.9806932505527612e-01  1.0008810221156554e+00  1.0000031182250504e+00  9.9999937392658278e-01  9.9999711918133094e-01  1.0000015311023107e+00  1.0029197748171212e+00  9.9701723310661261e-01  1.0000558888034665e+00  1.0000000015775423e+00  1.0000000004730289e+00  1.0000045166678782e+00  1.0000000000206983e+00  9.9999916691438062e-01  9.9999997416442243e-01  9.9999999948690266e-01  1.0000001428078820e+00  9.9999991929543341e-01  9.9997704166909995e-01  1.0000090573340628e+00  9.9999316739813393e-01  1.0000003888300562e+00  1.0000238982912375e+00  9.9999963435481976e-01  9.9999999952110363e-01  1.0000000026852973e+00  1.0003523560714127e+00  9.9935055052816357e-01  1.0006617067642269e+00  9.9966856635187173e-01  1.0000000220857663e+00  9.9999999943981377e-01  9.9998116717480179e-01  1.0000496303901851e+00  1.0000127499295663e+00  1.0000000014452770e+00  9.9998648830379622e-01  1.0000000038595873e+00  1.0000016162738004e+00  1.0000003794157875e+00  1.0000000012060759e+00  9.8989666241695751e-01  1.0104438517104717e+00  1.0000000002632101e+00  1.0013117708928980e+00  9.9873567867113611e-01  1.0000000158302123e+00  9.9992213499308835e-01  1.0000000038826182e+00  1.0000598022513321e+00  9.9999999532686790e-01  1.0000001697672876e+00  9.9999249106993315e-01  9.9999993240481500e-01  1.0000012736650306e+00  9.9999897264723270e-01  9.9744126526548549e-01  1.0030559297822959e+00  1.0003796600441137e+00  1.0000000003677201e+00  1.0000131938618633e+00  9.9623815573783436e-01  1.0040381743839430e+00  1.0000122507205140e+00  9.9999999798590233e-01  9.9999998688516289e-01  1.0000001753071852e+00  1.0000295723214903e+00  1.0000000020217330e+00  1.0000000016715564e+00  1.0000000004898086e+00  9.9999954211362363e-01  1.0000032090857967e+00  9.9162123355125353e-01  1.0094900933201962e+00  9.9997708297933674e-01  1.0000112673017998e+00  9.9955321937258068e-01  9.9999999947583784e-01  9.9990684043531153e-01  1.0000000043194888e+00  9.9999994067201414e-01  1.0000247265495910e+00  9.9951679403948968e-01  9.9999548198940491e-01  1.0000002206441057e+00  1.0000000391784665e+00  9.9996211157103487e-01  9.9989085019789037e-01  1.0000000001558123e+00  9.9999999908263282e-01  9.9999980528060817e-01  1.0000000014043244e+00  1.0000000033764258e+00  1.0000000172027563e+00  9.9752247980768216e-01  9.9999999942670892e-01  1.0000000003731329e+00  1.0059046615470972e+00  1.0026697468843868e+00  9.9999997220582193e-01  1.0000000002286267e+00  9.9999874363204433e-01  1.0000027780383975e+00  9.9999958418459689e-01  9.9997167988799118e-01  9.9998360589090862e-01  9.9999993727287761e-01  1.0000001060395107e+00  1.0000000109380254e+00  9.9995872635492478e-01  9.9999993553723976e-01  1.0000429406214233e+00  9.9999998989984262e-01  1.0000000105325821e+00  9.9987050057581217e-01  9.9889145054885620e-01  9.9926392138716014e-01  1.0000000006915704e+00  9.9999999879121226e-01  9.9999999279820484e-01  1.0000011627873011e+00  1.0067156689036929e+00  9.8545361844052104e-01  9.9999958921411647e-01  1.0000004106736582e+00  1.0000007044401089e+00  1.0000000089021353e+00  9.9999553631715377e-01  9.9999845840128743e-01  9.9999999995608990e-01  1.0000000054752389e+00  1.0000000068338615e+00  1.0000281128993338e+00  9.9490404058384352e-01  1.0000067760483127e+00  1.0000141237118347e+00  9.9999172552942639e-01  1.0000005448339941e+00  9.9999918774738605e-01  9.9999999970093678e-01  9.9999998928734335e-01  1.0000000001260798e+00  9.9999999857921740e-01  1.0000000006591458e+00  1.0009395415928419e+00  9.9999999994449706e-01  1.0043399230784147e+00  1.0006329872435504e+00  1.0011145540428965e+00  1.0011237360397911e+00  9.9574563472223954e-01  9.9766282629346015e-01  9.9999997528624329e-01  1.0000424075319683e+00  1.0000282545373336e+00  1.0002312865775349e+00  9.9993354211325580e-01  1.0000000509166986e+00  1.0000001133665213e+00  9.9997449350315415e-01  1.0051731797203167e+00  9.9515872563723873e-01  9.9999999967741204e-01  1.0002436282042042e+00  9.9999998760212550e-01  1.0000531682758500e+00  1.0000000015125134e+00  9.9804038058141431e-01  9.9999999991594335e-01  9.9999999938978978e-01  1.0000011910533653e+00  9.9999821948618262e-01  1.0000061701329397e+00  9.9073226497857914e-01  1.0097476453959731e+00  1.0000000010632617e+00  9.9999999956888352e-01  1.0015741300331722e+00  9.9999989796649946e-01  1.0000001077781082e+00  9.9999999680977014e-01  1.0000378842410393e+00  1.0000000004646346e+00  9.9996052552826920e-01  1.0001247500647783e+00  1.0000770631894067e+00  1.0000001672083634e+00  1.0000031386079717e+00  1.0001279646063845e+00  1.0006360940320573e+00  1.0000000011764378e+00  1.0000000011518420e+00  1.0000000087017900e+00  9.9996289011830475e-01  9.9999999943520801e-01  9.9984622193947892e-01  1.0025949736534376e+00  9.9845383579809333e-01  1.0000000002338569e+00  9.9997973468382473e-01  1.0000000009830026e+00  1.0000000011800021e+00  1.0000000011772794e+00  9.9998482812052436e-01  1.0000067507778052e+00  9.9999999985832078e-01  9.9999999751222113e-01  1.0002935326873079e+00  9.9999999016176033e-01  1.0000000008035297e+00  1.0000013537571351e+00  9.9999883210081952e-01  1.0000018946919886e+00  9.9999995451657708e-01  1.0000125731013547e+00  9.9999980365384833e-01  1.0149096644182447e+00  9.9999783361028294e-01  9.9999961454443886e-01  9.9966971818782713e-01  1.0000009682267825e+00  9.9999049007998841e-01  9.9848397134486055e-01  1.0000511874469422e+00  9.9999986204621527e-01  9.9994007703884979e-01  1.0000078372646650e+00  9.9999882470732393e-01  9.9996678446713583e-01  9.9998947017555795e-01  9.9396812393660605e-01  9.9999999446981636e-01  1.0023659619235090e+00  1.0000000002563192e+00  9.9777984470395586e-01  1.0001077716791444e+00  1.0000007693513098e+00  9.9999999461475830e-01  9.9958177860884145e-01  9.9999492011965174e-01  1.0000263489802399e+00  9.9998446767506599e-01  9.9999999935275119e-01  1.0004477337714552e+00  1.0000000043325910e+00  1.0000000434465677e+00  1.0000002010148732e+00  1.0000000003253129e+00  9.9994635151484246e-01  1.0000000338096382e+00  1.0000001080756036e+00  1.0000136975074017e+00  9.9997292637195279e-01  9.9985622377401728e-01  1.0000000024593878e+00  9.9951599801527691e-01  1.0000187380927821e+00  1.0000002256167451e+00  9.9999808815572178e-01  1.0000004634913404e+00  9.9998911723120709e-01  1.0000003050830939e+00  9.9999999884216240e-01  9.9995509907709579e-01  1.0000029566767255e+00  9.9999999605024548e-01  1.0007111559869544e+00  9.9999999925934646e-01  1.0000000006922785e+00  1.0000000005681657e+00  1.0005529999965099e+00  1.0030765065958549e+00  1.0001033771971284e+00  1.0000000020347153e+00  1.0000000046085196e+00  1.0000000003087040e+00  9.9945811661399575e-01  1.0000012384766015e+00  9.9606738594595901e-01  1.0057722924625854e+00  9.9999998655353028e-01  9.9999819159636694e-01  1.0000000073580475e+00  1.0000000060981509e+00  1.0000000006085896e+00  1.0000000007731291e+00  9.9999999973987008e-01  1.0000027397082019e+00  1.0000000012344819e+00  9.9439651734340362e-01  1.0000000002820641e+00  1.0019865442365239e+00  9.9754531013017211e-01  1.0000133938044644e+00  1.0000958243403890e+00  1.0001408165308521e+00  9.9996542327456872e-01  1.0000000024645839e+00  1.0058383716998418e+00  9.9083927675657013e-01  1.0101141862925338e+00  9.9757878704530245e-01  1.0037915890136668e+00  9.9999979199803202e-01  9.9999790628026231e-01  9.9999999907838910e-01  1.0005592324314363e+00  1.0000000009252157e+00  9.9999982808247367e-01  1.0000000013568471e+00  9.9999999473507128e-01  1.0000000002923066e+00  9.9999999241641657e-01  1.0001863594732117e+00  9.9999878513743323e-01  1.0000000119381800e+00  9.9978689443581570e-01  1.0000000010590169e+00  1.0000000003598934e+00  9.9999845343179217e-01  1.0000039683370894e+00  9.9997589685174637e-01  1.0000188843404472e+00  9.9999995841252953e-01  1.0000655354866359e+00  9.9992876501675487e-01  1.0000016126522109e+00  9.9999999074899559e-01  9.9999581482746502e-01  1.0000000024622169e+00  9.9800752641048573e-01  1.0000000035156396e+00  9.9977067239104289e-01  1.0000000017217521e+00  9.9956704834721077e-01  9.9999996724219975e-01  1.0000005053564625e+00  9.9999997492302750e-01  1.0000000039703605e+00  1.0000000011930574e+00  9.9999971583255109e-01  9.9637920999196017e-01  1.0044107911567484e+00  9.9999999225460767e-01  1.0000000107802496e+00  1.0000000055506892e+00  9.9999445251954100e-01  9.9998545938474859e-01  9.9998121124795125e-01  1.0000000890001093e+00  9.9985977785481894e-01  9.9981937087750750e-01  1.0000000011591716e+00  1.0000009324409793e+00  1.0000122089021073e+00  1.0000006123258069e+00  1.0013921110501922e+00  1.0009683415584203e+00  9.9998667207828595e-01  1.0000003415382637e+00  1.0000000734982506e+00  1.0000000043821309e+00  9.9999994911634926e-01  1.0000785913449761e+00  1.0002184131436263e+00  9.9812404953580702e-01  9.9991324297370943e-01  1.0000314690157543e+00  9.9960531008450570e-01  9.9999999998863676e-01  1.0127479408780489e+00  9.9996203540876494e-01  9.9999999988062649e-01  1.0018403135924134e+00  9.9388398477512818e-01  1.0000000003619316e+00  1.0000136917030431e+00  9.9999999946717455e-01  1.0000001519116715e+00  9.9999924683519070e-01  9.9999987907250354e-01  1.0000010795348702e+00  1.0000000088657286e+00  1.0000000033844303e+00  1.0002865374003864e+00  9.9999924772655679e-01  9.9999969183509274e-01  9.9999980746594563e-01  1.0026990539036416e+00  9.9999978010725299e-01  1.0000304575745984e+00  9.9999986486234971e-01  9.9999946501010384e-01  1.0000000017830695e+00  9.9999999948143714e-01  1.0000085766942941e+00  9.9999498666492059e-01  1.0067187206653869e+00  9.9301752659192877e-01  1.0000095935887530e+00  9.9999933120737583e-01  1.0000000014130079e+00  1.0000000048299127e+00  1.0000028590056347e+00  1.0000000134248945e+00  1.0002662446251716e+00  1.0005350198481309e+00  1.0001114811763239e+00  9.9999999977584442e-01  9.9538062146529704e-01  9.9902484369416455e-01  1.0028546018482782e+00  9.9999998832883630e-01  9.9999993590563674e-01  1.0000029108408881e+00  1.0072993671223278e+00  9.9982502297211306e-01  1.0000003114922960e+00  9.9999515826833407e-01  1.0000109503040193e+00  1.0000369661640771e+00  1.0000000013189438e+00  1.0000000012553580e+00  1.0000004003542475e+00  9.9999999955779395e-01  9.9999998801002665e-01  1.0000000025167042e+00  1.0000017865300943e+00  9.8722083064201793e-01  9.9999999936993644e-01  9.9979505520830525e-01  9.9999999927792971e-01  9.9953138218483673e-01  9.9999766071273255e-01  1.0000000156134929e+00  1.0000006308008496e+00  9.9999999621313096e-01  1.0004900661499918e+00  9.9993657195584040e-01  1.0000253972452640e+00  1.0000033704953528e+00  1.0000071571451514e+00  9.9999319464831260e-01  1.0000000009654115e+00  1.0000000275592684e+00  9.9999999915828008e-01  1.0010716448746861e+00  1.0000000220082685e+00  1.0006792539619445e+00  9.9999912486636544e-01  1.0000007886353284e+00  1.0026261071271934e+00  1.0089921547215854e+00  1.0008053165953092e+00  9.9812976601799841e-01  1.0037380383275849e+00  1.0000024577107700e+00  9.9999999788469696e-01  1.0000000034795067e+00  1.0000241594290853e+00  9.9999999399130646e-01  9.9999988874672197e-01  9.9999999394980210e-01  9.9999999910651027e-01  1.0000009226847948e+00  1.0000000062472649e+00  1.0000000001843288e+00  1.0000343871593651e+00  9.9999316027371810e-01  1.0000013465931987e+00  1.0000248837237613e+00  9.9990232921248956e-01  9.9739102207114916e-01  9.9143515340616695e-01  1.0000003225360943e+00  9.9997580303062339e-01  9.9998253982886398e-01  9.9997929943551489e-01  9.9999713159652648e-01  9.9999962549454224e-01  1.0000006812149229e+00  1.0027007029332615e+00  1.0002101388099063e+00  9.9996231636302313e-01  9.9996164036675061e-01  1.0000000519305616e+00  9.9085974121530607e-01  1.0000000138866609e+00  1.0000294557323344e+00  1.0000059641675314e+00  1.0000142918580615e+00  1.0104006440972355e+00  9.9999999941439666e-01  9.9872460453543022e-01  1.0000020918284962e+00  1.0002220530879888e+00  9.9906732228175199e-01  9.9999999579466015e-01  1.0001918573309512e+00  9.9999998229832454e-01  1.0000491740716593e+00  1.0011612800764473e+00  1.0001387549166070e+00  9.9996548850758105e-01  1.0000000058893233e+00  1.0000000248705363e+00  9.9997995269699580e-01  1.0000000013669288e+00  9.9992164249152282e-01  1.0000000001662019e+00  9.9999999915856341e-01  9.9971922560215121e-01  9.9719368590888013e-01  9.9999999469396084e-01  9.9999999922869920e-01  9.9049099632023663e-01  1.0000079885408950e+00  1.0000035036229944e+00  1.0000490626980278e+00  9.9928020329155443e-01  1.0045682332723518e+00  1.0076940359445099e+00  9.9547001546000335e-01  9.9566888576665635e-01  1.0000000003896314e+00  9.9999999848433097e-01  1.0000000024643667e+00  9.9999998040505689e-01  1.0001519991886627e+00  9.9999478926926366e-01  9.9998919793957974e-01  1.0000000210333706e+00  1.0000001172197512e+00  1.0000002218261117e+00  9.9999997454233869e-01  9.9999628187972456e-01  9.9999999953059815e-01  1.0000000046891311e+00  9.9894807771344996e-01  1.0000000007654111e+00  1.0000000058832477e+00  9.9995632734467221e-01  9.9997367340105714e-01  9.9999999852613908e-01  1.0000000011495325e+00  1.0029097869467301e+00  1.0002114857699274e+00  9.9999999938616235e-01  9.9999621860204058e-01  1.0000057790727372e+00  1.0000000474898756e+00  9.9999866152353800e-01  9.9999907208927552e-01  9.9999999767724168e-01  1.0000445927556723e+00  9.9999992604673660e-01  9.9999999097925552e-01  9.9999541903072042e-01  1.0000746999131924e+00  1.0000003216395030e+00  9.9999983131834036e-01  9.9997839556610435e-01  1.0000005204613105e+00  1.0000002777578572e+00  1.0000003269398965e+00  9.9999999962621644e-01  1.0000000045693223e+00  1.0000000008350820e+00  9.9999999925372851e-01  9.9999999962382258e-01  1.0128650390028064e+00  9.8860293937471033e-01  1.0000000004700742e+00  1.0000000425732851e+00  1.0000000505749516e+00  9.9999999125122485e-01  9.9999998853523664e-01  9.9999995806597286e-01  1.0076699326278473e+00  1.0034253057303393e+00  9.9319742928632448e-01  1.0000046622807330e+00  1.0000000011790779e+00  1.0000126318097780e+00  1.0000000005899652e+00  1.0002504987708145e+00  9.9999999869583145e-01  1.0005721470215265e+00  9.9997321352536994e-01  9.9995794762472223e-01  1.0000000016540456e+00  9.9999160065588977e-01  9.9998657204946606e-01  9.9874271819562999e-01  9.9692917546538418e-01  1.0000000000010736e+00  9.9999999941395734e-01  9.9999999590998712e-01  1.0003582620292466e+00  9.9987472942412681e-01  9.9999994312156926e-01  1.0000000653789445e+00  9.9996868876028822e-01  9.9998254237560358e-01  1.0000000466805374e+00  9.9998193131406476e-01  1.0000001705529520e+00  9.9999999814092289e-01  9.9999999848464427e-01  9.9999999884684243e-01  9.9999987319376638e-01  9.9999111930537055e-01  9.9999992793492543e-01  1.0000000007768943e+00  1.0000000002102600e+00  9.9994895754839663e-01  9.9999852208597895e-01  9.9750102573831045e-01  9.9992887603206260e-01  1.0000000088772345e+00  9.9999868806634440e-01  1.0000020686872058e+00  9.9999658360686960e-01  1.0000000000129112e+00  1.0000069919494365e+00  1.0000518842332884e+00  9.9308191147036085e-01  1.0084461140430945e+00  9.9222553968155458e-01  1.0070248186224227e+00  9.9999999256608441e-01  1.0000000043692994e+00  9.9999999014658425e-01  1.0000000299544090e+00  1.0000002541203203e+00  1.0000001957972695e+00  9.9989149404129407e-01  1.0000000043894111e+00  1.0000791950123311e+00  9.9999999980998633e-01  9.9980160512790928e-01  1.0000001177230071e+00  1.0001224886770852e+00  1.0000464059738214e+00  1.0000001847530144e+00  1.0038446603920039e+00  1.0000000040945718e+00  1.0108152553995711e+00  9.9227350294746119e-01  9.9999987761240372e-01  9.9999989326271199e-01  1.0000520788635989e+00  9.9999999633944425e-01  1.0003282181737714e+00  9.9999979627610369e-01  1.0043499870368486e+00  1.0000221809679648e+00  9.9999944498893845e-01  1.0000000012406909e+00  9.9999999960097952e-01  1.0000000045369921e+00  1.0058059610845873e+00  1.0001242602081835e+00  9.9561083785099769e-01  9.9658717397777830e-01  9.9999999696920117e-01  9.9999999955923380e-01  1.0000000018855650e+00  1.0125334416638259e+00  1.0000000023020439e+00  1.0058158326748918e+00  9.9999998952665892e-01  9.9999999717279164e-01  1.0000000008200560e+00  9.9999999