<?xml version="1.0"?>
<VTKFile type="UnstructuredGrid"  version="0.1"  >
<UnstructuredGrid>
<Piece  NumberOfPoints="2401" NumberOfCells="4608">
<Points>
<DataArray  type="Float64"  NumberOfComponents="3"  format="ascii">0 0 0  0.001070538380698371 0 0  0.004277569313095364 0 0  0.009607359798386061 0 0  0.01703708685546806 0 0  0.02653493525245065 0 0  0.03806023374436157 0 0  0.05156362923366253 0 0  0.06698729810778931 0 0  0.08426519384873815 0 0  0.1033233298543955 0 0  0.1240800962605269 0 0  0.1464466094067445 0 0  0.1703270924499866 0 0  0.1956192854956637 0 0  0.2222148834902257 0 0  0.2500000000000299 0 0  0.2788556548905322 0 0  0.308658283817491 0 0  0.339280267348458 0 0  0.3705904774487813 0 0  0.4024548389919803 0 0  0.4347369038900211 0 0  0.467298435384978 0 0  0.5000000000000517 0 0  0.5327015646151253 0 0  0.5652630961100813 0 0  0.5975451610081212 0 0  0.6294095225513188 0 0  0.6607197326516399 0 0  0.6913417161826045 0 0  0.7211443451095605 0 0  0.7500000000000597 0 0  0.7777851165098603 0 0  0.8043807145044185 0 0  0.829672907550091 0 0  0.8535533905933287 0 0  0.8759199037395413 0 0  0.8966766701456674 0 0  0.9157348061513193 0 0  0.9330127018922625 0 0  0.9484363707663832 0 0  0.961939766255678 0 0  0.9734650647475827 0 0  0.9829629131445586 0 0  0.9903926402016341 0 0  0.9957224306869181 0 0  0.9989294616193084 0 0  1 0 0  0 0.02083333333333333 0  0.001070538380698371 0.02083333333333333 0  0.004277569313095364 0.02083333333333333 0  0.009607359798386061 0.02083333333333333 0  0.01703708685546806 0.02083333333333333 0  0.02653493525245065 0.02083333333333333 0  0.03806023374436157 0.02083333333333333 0  0.05156362923366253 0.02083333333333333 0  0.06698729810778931 0.02083333333333333 0  0.08426519384873815 0.02083333333333333 0  0.1033233298543955 0.02083333333333333 0  0.1240800962605269 0.02083333333333333 0  0.1464466094067445 0.02083333333333333 0  0.1703270924499866 0.02083333333333333 0  0.1956192854956637 0.02083333333333333 0  0.2222148834902257 0.02083333333333333 0  0.2500000000000299 0.02083333333333333 0  0.2788556548905322 0.02083333333333333 0  0.308658283817491 0.02083333333333333 0  0.339280267348458 0.02083333333333333 0  0.3705904774487813 0.02083333333333333 0  0.4024548389919803 0.02083333333333333 0  0.4347369038900211 0.02083333333333333 0  0.467298435384978 0.02083333333333333 0  0.5000000000000517 0.02083333333333333 0  0.5327015646151253 0.02083333333333333 0  0.5652630961100813 0.02083333333333333 0  0.5975451610081212 0.02083333333333333 0  0.6294095225513188 0.02083333333333333 0  0.6607197326516399 0.02083333333333333 0  0.6913417161826045 0.02083333333333333 0  0.7211443451095605 0.02083333333333333 0  0.7500000000000597 0.02083333333333333 0  0.7777851165098603 0.02083333333333333 0  0.8043807145044185 0.02083333333333333 0  0.829672907550091 0.02083333333333333 0  0.8535533905933287 0.02083333333333333 0  0.8759199037395413 0.02083333333333333 0  0.8966766701456674 0.02083333333333333 0  0.9157348061513193 0.02083333333333333 0  0.9330127018922625 0.02083333333333333 0  0.9484363707663832 0.02083333333333333 0  0.961939766255678 0.02083333333333333 0  0.9734650647475827 0.02083333333333333 0  0.9829629131445586 0.02083333333333333 0  0.9903926402016341 0.02083333333333333 0  0.9957224306869181 0.02083333333333333 0  0.9989294616193084 0.02083333333333333 0  1 0.02083333333333333 0  0 0.04166666666666666 0  0.001070538380698371 0.04166666666666666 0  0.004277569313095364 0.04166666666666666 0  0.009607359798386061 0.04166666666666666 0  0.01703708685546806 0.04166666666666666 0  0.02653493525245065 0.04166666666666666 0  0.03806023374436157 0.04166666666666666 0  0.05156362923366253 0.04166666666666666 0  0.06698729810778931 0.04166666666666666 0  0.08426519384873815 0.04166666666666666 0  0.1033233298543955 0.04166666666666666 0  0.1240800962605269 0.04166666666666666 0  0.1464466094067445 0.04166666666666666 0  0.1703270924499866 0.04166666666666666 0  0.1956192854956637 0.04166666666666666 0  0.2222148834902257 0.04166666666666666 0  0.2500000000000299 0.04166666666666666 0  0.2788556548905322 0.04166666666666666 0  0.308658283817491 0.04166666666666666 0  0.339280267348458 0.04166666666666666 0  0.3705904774487813 0.04166666666666666 0  0.4024548389919803 0.04166666666666666 0  0.4347369038900211 0.04166666666666666 0  0.467298435384978 0.04166666666666666 0  0.5000000000000517 0.04166666666666666 0  0.5327015646151253 0.04166666666666666 0  0.5652630961100813 0.04166666666666666 0  0.5975451610081212 0.04166666666666666 0  0.6294095225513188 0.04166666666666666 0  0.6607197326516399 0.04166666666666666 0  0.6913417161826045 0.04166666666666666 0  0.7211443451095605 0.04166666666666666 0  0.7500000000000597 0.04166666666666666 0  0.7777851165098603 0.04166666666666666 0  0.8043807145044185 0.04166666666666666 0  0.829672907550091 0.04166666666666666 0  0.8535533905933287 0.04166666666666666 0  0.8759199037395413 0.04166666666666666 0  0.8966766701456674 0.04166666666666666 0  0.9157348061513193 0.04166666666666666 0  0.9330127018922625 0.04166666666666666 0  0.9484363707663832 0.04166666666666666 0  0.961939766255678 0.04166666666666666 0  0.9734650647475827 0.04166666666666666 0  0.9829629131445586 0.04166666666666666 0  0.9903926402016341 0.04166666666666666 0  0.9957224306869181 0.04166666666666666 0  0.9989294616193084 0.04166666666666666 0  1 0.04166666666666666 0  0 0.0625 0  0.001070538380698371 0.0625 0  0.004277569313095364 0.0625 0  0.009607359798386061 0.0625 0  0.01703708685546806 0.0625 0  0.02653493525245065 0.0625 0  0.03806023374436157 0.0625 0  0.05156362923366253 0.0625 0  0.06698729810778931 0.0625 0  0.08426519384873815 0.0625 0  0.1033233298543955 0.0625 0  0.1240800962605269 0.0625 0  0.1464466094067445 0.0625 0  0.1703270924499866 0.0625 0  0.1956192854956637 0.0625 0  0.2222148834902257 0.0625 0  0.2500000000000299 0.0625 0  0.2788556548905322 0.0625 0  0.308658283817491 0.0625 0  0.339280267348458 0.0625 0  0.3705904774487813 0.0625 0  0.4024548389919803 0.0625 0  0.4347369038900211 0.0625 0  0.467298435384978 0.0625 0  0.5000000000000517 0.0625 0  0.5327015646151253 0.0625 0  0.5652630961100813 0.0625 0  0.5975451610081212 0.0625 0  0.6294095225513188 0.0625 0  0.6607197326516399 0.0625 0  0.6913417161826045 0.0625 0  0.7211443451095605 0.0625 0  0.7500000000000597 0.0625 0  0.7777851165098603 0.0625 0  0.8043807145044185 0.0625 0  0.829672907550091 0.0625 0  0.8535533905933287 0.0625 0  0.8759199037395413 0.0625 0  0.8966766701456674 0.0625 0  0.9157348061513193 0.0625 0  0.9330127018922625 0.0625 0  0.9484363707663832 0.0625 0  0.961939766255678 0.0625 0  0.9734650647475827 0.0625 0  0.9829629131445586 0.0625 0  0.9903926402016341 0.0625 0  0.9957224306869181 0.0625 0  0.9989294616193084 0.0625 0  1 0.0625 0  0 0.08333333333333333 0  0.001070538380698371 0.08333333333333333 0  0.004277569313095364 0.08333333333333333 0  0.009607359798386061 0.08333333333333333 0  0.01703708685546806 0.08333333333333333 0  0.02653493525245065 0.08333333333333333 0  0.03806023374436157 0.08333333333333333 0  0.05156362923366253 0.08333333333333333 0  0.06698729810778931 0.08333333333333333 0  0.08426519384873815 0.08333333333333333 0  0.1033233298543955 0.08333333333333333 0  0.1240800962605269 0.08333333333333333 0  0.1464466094067445 0.08333333333333333 0  0.1703270924499866 0.08333333333333333 0  0.1956192854956637 0.08333333333333333 0  0.2222148834902257 0.08333333333333333 0  0.2500000000000299 0.08333333333333333 0  0.2788556548905322 0.08333333333333333 0  0.308658283817491 0.08333333333333333 0  0.339280267348458 0.08333333333333333 0  0.3705904774487813 0.08333333333333333 0  0.4024548389919803 0.08333333333333333 0  0.4347369038900211 0.08333333333333333 0  0.467298435384978 0.08333333333333333 0  0.5000000000000517 0.08333333333333333 0  0.5327015646151253 0.08333333333333333 0  0.5652630961100813 0.08333333333333333 0  0.5975451610081212 0.08333333333333333 0  0.6294095225513188 0.08333333333333333 0  0.6607197326516399 0.08333333333333333 0  0.6913417161826045 0.08333333333333333 0  0.7211443451095605 0.08333333333333333 0  0.7500000000000597 0.08333333333333333 0  0.7777851165098603 0.08333333333333333 0  0.8043807145044185 0.08333333333333333 0  0.829672907550091 0.08333333333333333 0  0.8535533905933287 0.08333333333333333 0  0.8759199037395413 0.08333333333333333 0  0.8966766701456674 0.08333333333333333 0  0.9157348061513193 0.08333333333333333 0  0.9330127018922625 0.08333333333333333 0  0.9484363707663832 0.08333333333333333 0  0.961939766255678 0.08333333333333333 0  0.9734650647475827 0.08333333333333333 0  0.9829629131445586 0.08333333333333333 0  0.9903926402016341 0.08333333333333333 0  0.9957224306869181 0.08333333333333333 0  0.9989294616193084 0.08333333333333333 0  1 0.08333333333333333 0  0 0.1041666666666667 0  0.001070538380698371 0.1041666666666667 0  0.004277569313095364 0.1041666666666667 0  0.009607359798386061 0.1041666666666667 0  0.01703708685546806 0.1041666666666667 0  0.02653493525245065 0.1041666666666667 0  0.03806023374436157 0.1041666666666667 0  0.05156362923366253 0.1041666666666667 0  0.06698729810778931 0.1041666666666667 0  0.08426519384873815 0.1041666666666667 0  0.1033233298543955 0.1041666666666667 0  0.1240800962605269 0.1041666666666667 0  0.1464466094067445 0.1041666666666667 0  0.1703270924499866 0.1041666666666667 0  0.1956192854956637 0.1041666666666667 0  0.2222148834902257 0.1041666666666667 0  0.2500000000000299 0.1041666666666667 0  0.2788556548905322 0.1041666666666667 0  0.308658283817491 0.1041666666666667 0  0.339280267348458 0.1041666666666667 0  0.3705904774487813 0.1041666666666667 0  0.4024548389919803 0.1041666666666667 0  0.4347369038900211 0.1041666666666667 0  0.467298435384978 0.1041666666666667 0  0.5000000000000517 0.1041666666666667 0  0.5327015646151253 0.1041666666666667 0  0.5652630961100813 0.1041666666666667 0  0.5975451610081212 0.1041666666666667 0  0.62
[...]
<CellData  Scalars="f_1662723"> 
<DataArray  type="Float64"  Name="f_1662723"  format="ascii">4.2584800236775003e+01   5.5104151365233925e+01   3.1642340418491095e+01   2.6463139081389912e+01   4.2154787494029925e+01   3.1649379063919543e+01   5.4564229745994261e+01   3.8078719285573172e+01   6.5218196592854966e+01   4.2644127177173552e+01   7.5388741221764874e+01   4.5931306322744724e+01   8.3678110273529526e+01   5.3166595868740508e+01   1.1935603098970127e+02   7.1659174877633092e+01   1.0477679490282183e+02   7.4793978340126174e+01   1.1731170196112409e+02   8.7396335195159779e+01   1.1950566400558607e+02   9.1382695946515113e+01   1.4016542309376146e+02   1.1723318834438861e+02   1.4519946730406096e+02   1.1501021840230510e+02   9.9256075172589362e+01   8.5806316369821602e+01   9.9782472753125475e+01   6.0088202745213110e+01   2.1071973533230400e+02   1.3074497816022017e+02   2.2306144782881836e+02   2.3072051322287450e+02   9.5198406484871114e+01   9.6301401333876342e+01   1.0781747179849030e+02   7.0418665643056656e+01   2.3549819921527225e+02   1.4449122363516437e+02   2.1639398141866300e+02   2.3178661013187920e+02   8.7157022827978125e+01   8.3447103345056817e+01   6.7678629322053354e+01   5.8636437393547979e+01   1.0587195604261919e+02   6.1734036541173353e+01   1.3184985577872388e+02   8.1089135645800752e+01   1.6800253327783875e+02   1.2662328627815666e+02   1.2734454131918245e+02   1.2383491453613800e+02   9.7339874864478176e+01   6.8012600786721251e+01   1.0010562104296073e+02   7.4722980323705855e+01   1.1285390101806850e+02   9.5822347559705278e+01   7.8309607271342855e+01   7.0771008310529723e+01   7.6882085928624491e+01   5.5710682253461783e+01   9.1331122466831914e+01   6.4412998154431136e+01   8.5241290566807976e+01   6.6373880897040280e+01   4.2475319784523229e+01   8.2941049735569678e+01   4.3550237915938268e+01   3.9726514611515668e+01   7.4176243554928377e+01   5.0812330021078992e+01   6.8875701461564759e+01   6.0532194933075260e+01   6.9490626305076162e+01   5.4637595019914471e+01   6.1947244937618713e+01   3.9233300136094371e+01   5.9003709407914876e+01   4.1213108673258546e+01   5.9631971861561730e+01   4.0278632941649498e+01   5.5661925547420360e+01   3.9635381368817228e+01   4.6305386378652706e+01   3.4158389911307260e+01   3.4947948039979103e+01   2.6470602580543964e+01   2.6381243128576102e+01   2.1363536890613325e+01   2.9269206117193473e+01   2.3166774917201948e+01   4.1098441106528355e+01   5.7797987709296720e+01   3.8115953277351700e+01   5.2917199776132335e+01   2.5630487720131736e+01   2.5414624033758670e+01   2.5441239132224432e+01   2.2957945221487023e+01   2.3782644641456571e+01   2.0965398306847195e+01   1.9957994810343909e+01   1.7978357908283755e+01   2.0604517372287056e+01   1.7559786137990937e+01   1.3952716040946676e+01   1.4155762400196691e+01   4.5273896335867001e+01   1.2886152139397785e+01   1.0670314801841441e+02   9.8633130761995332e+01   3.0258277114113422e+01   7.7356771381124688e+01   7.8947541011349955e+01   7.6664276968677072e+01   1.2085377219092835e+02   9.8702470719776414e+01   1.4683124018624636e+02   1.7022998565461097e+02   4.5275214645842432e+01   1.3533467348159979e+02   3.6793028680202461e+01   4.1542514755513906e+01   1.9922757467703480e+02   1.4217358867296534e+02   2.4033020904839682e+02   2.9623953180249759e+02   7.2046101766343412e+01   1.7378615118520901e+02   4.3212614420453853e+01   5.1496595004778897e+01   2.0745011358495580e+02   1.4238770018129819e+02   1.7468001511145908e+02   2.4940600334382904e+02   1.0287953392229470e+02   1.0604174950954943e+02   4.3175585206172080e+01   9.7999772835198499e+01   4.4935091657457342e+01   3.4308180094974183e+01   1.3172205819233565e+02   1.1702094653252159e+02   1.6966472967588487e+02   1.9596580719076331e+02   7.4845820552565925e+01   1.5139963694882786e+02   3.1603437884096994e+01   2.7837680155700905e+01   1.0913535255816282e+02   9.6734654606267227e+01   1.4323481169222828e+02   1.6851573457186902e+02   4.9717404582919023e+01   1.2050669187761657e+02   4.1211422922138325e+01   2.8388915055092212e+01   3.8018778218427990e+01   3.7897313735659083e+01   1.1714398420398467e+02   9.8333916622018506e+01   1.2653770992383548e+02   1.6579960421651234e+02   6.1194836497944991e+01   9.4480778287118696e+01   8.6656370506513227e+01   1.0241086510437644e+02   5.9424938678670550e+01   7.8952624308646833e+01   2.7471224376518929e+01   3.9679892841000495e+01   4.6143737997291844e+01   4.1148912409848123e+01   2.3024091245715084e+01   4.0089888104213706e+01   2.9370236764670810e+01   2.4756251438043389e+01   2.9426003966093539e+01   2.9898221086674674e+01   2.3452491535509036e+01   2.6286572697756434e+01   1.7877644133632888e+01   2.0664395527918757e+01   1.7284070384505483e+01   1.9539228899866462e+01   2.2488088371407599e+01   2.3890319025358082e+01   8.5837273562572875e+01   5.7615851589184729e+01   6.9147354984411990e+01   1.2145531903327456e+02   6.9412797975204185e+01   1.0066406524043109e+02   6.5379667432242854e+01   9.7664410117122983e+01   5.8734685047416114e+01   9.2263960038070365e+01   5.1215111100959639e+01   8.4961810076250359e+01   4.3739997963401187e+01   7.2719409134022129e+01   3.2683344239422830e+01   5.0322397191330317e+01   1.4004680290129450e+01   3.2459743128627828e+01   7.5210549096734809e+01   3.7629165381386244e+01   1.2301743304898565e+02   1.1374732173996809e+02   1.2676055408946083e+02   1.4936293805644542e+02   1.5630182932954480e+02   1.4172409856456594e+02   2.4522310605580313e+02   2.4915280950212352e+02   1.2675383953018112e+02   2.0094180728032157e+02   5.0649369308217203e+01   4.9509229829448991e+01   2.0670711426039799e+02   1.2682145879679750e+02   3.2403877137470721e+02   3.1119838277274710e+02   1.4958749128774662e+02   2.3252098972983805e+02   4.9597232761000157e+01   5.4398839455705925e+01   2.0065366600213943e+02   1.1413720117120970e+02   2.1744545842658627e+02   2.3528936486867903e+02   1.2792126467369826e+02   1.2254886931969789e+02   7.6124472636607578e+01   1.2896786893886394e+02   3.4048991773962193e+01   2.8646300741235780e+01   1.9875964978536948e+02   1.4546472491491093e+02   2.6684993796797966e+02   2.8326989048237476e+02   1.1877820259638182e+02   2.0369382020157224e+02   2.9935602469346371e+01   2.6391098798377307e+01   1.6754291459175388e+02   1.2225456684089868e+02   2.2385787976326296e+02   2.3987960625716309e+02   1.0030218659549038e+02   1.7184902846615722e+02   2.5224089364117653e+01   2.5603773317625937e+01   2.7606795683672281e+01   2.4989032741956109e+01   1.6079731399949426e+02   1.1222175306458277e+02   2.0420800288385553e+02   2.2201018765577268e+02   1.0001368623961881e+02   1.3192398608236502e+02   1.2808565263720396e+02   1.3609733981016956e+02   6.8554384196235517e+01   9.5565582195735701e+01   2.4931613771010600e+01   2.7506451208938344e+01   5.4766696737816325e+01   4.5218741409546780e+01   3.5756636557704816e+01   5.3810604742901603e+01   2.1628486504383019e+01   1.8938620163977181e+01   1.9265397134142074e+01   2.1235444925360301e+01   1.7303392880126193e+01   1.9317463037111697e+01   2.1262618504031693e+01   2.1467802066288936e+01   2.8523925124721007e+01   2.7980065503595767e+01   2.8600924544593372e+01   3.1337306224784925e+01   1.1130828412699309e+02   8.3547695922465991e+01   1.6175303017171649e+02   1.7840405505413253e+02   1.4433622493636983e+02   1.6107153832501635e+02   1.4122396185313644e+02   1.5711935226556955e+02   1.3407264863570578e+02   1.4995580963315587e+02   1.2481954859633898e+02   1.3623974746594902e+02   9.9416907065950653e+01   1.1329136138620584e+02   6.0608152380142819e+01   8.6578115750159597e+01   3.6435328178431796e+01   4.0685227519574120e+01   3.5367797110818437e+01   2.2347176553289689e+01   1.4220651517899068e+02   1.0638786518920841e+02   2.0361256429798138e+02   2.0113052583122393e+02   1.7440395686104523e+02   1.5689265759307494e+02   2.6196957991918009e+02   2.4178238392657653e+02   1.4410785498895842e+02   1.8724153276834977e+02   6.0567983969447042e+01   6.7673370587933604e+01   1.5134656339402267e+02   8.0831613987787620e+01   2.9508838593880517e+02   2.2826302581981903e+02   1.5423661666401370e+02   2.1189934155672967e+02   5.3186901176451229e+01   5.7366879531942736e+01   1.3935460498408833e+02   6.4624767498187296e+01   1.5748731956886121e+02   1.4843241038192531e+02   1.6243959579747411e+02   1.4537477873939906e+02   9.0090905191539505e+01   1.6789912629217048e+02   2.8804457421233863e+01   2.6872896947217004e+01   2.2032460478560756e+02   1.4740985121753295e+02   3.0904174114466952e+02   3.0672594246477149e+02   1.4736157439241825e+02   2.2963671666304020e+02   2.8964362738702459e+01   2.5977590980211325e+01   1.9331190219815502e+02   1.2986852392238467e+02   2.6282704847741525e+02   2.7096078463130812e+02   1.2696779177547201e+02   1.9738783889949408e+02   2.2521153131970923e+01   2.6942428762799310e+01   3.0713402356532150e+01   2.8143063582243755e+01   1.6212479687421543e+02   1.0280623432045005e+02   2.2800328850530119e+02   2.2699041200214447e+02   1.1658519226308856e+02   1.4738990261566923e+02   1.3501652711094081e+02   1.4624936347338522e+02   6.8168058592694408e+01   9.3893304481338660e+01   2.2206553287239171e+01   2.4787255112751573e+01   4.3598947310781938e+01   2.7913917231552848e+01   6.2903267326739318e+01   6.2599813440983873e+01   5.2921743283591738e+01   5.7415460603892527e+01   6.8722543369967980e+01   8.7227947268632846e+01   6.3277813923830209e+01   9.3527366865483302e+01   5.0995247203111326e+01   7.9627944865616669e+01   4.1840988314382351e+01   5.9639469388874311e+01   4.6270789596122071e+01   5.1078831149496679e+01   1.7151818376010519e+02   1.5102487589704126e+02   1.0355045082486625e+02   1.3470511192396870e+02   1.1060663596290681e+02   1.1082916320455458e+02   1.0822653895493737e+02   9.9469600046550369e+01   1.0474053121761817e+02   9.3929820934028911e+01   9.8634401974158195e+01   9.1255328666243614e+01   8.4146409712851280e+01   8.8852392510987912e+01   5.8000151639751550e+01   6.3890669872178783e+01   2.1799143055520307e+01   2.4350936695725434e+01   2.0815261575613722e+01   1.3823113307803519e+01   1.3531442242089238e+02   8.6532506134812650e+01   1.9582737319145073e+02   1.6997732680151560e+02   1.4755812619108085e+02   1.3312292299786660e+02   1.8658257544031355e+02   1.6645736462852682e+02   1.0927946326098429e+02   1.2140129708291643e+02   8.1136365847889053e+01   7.5699805629148258e+01   1.0978063784148310e+02   8.9397084141324470e+01   1.8465989855520451e+02   1.3543195376502626e+02   1.1333951096815200e+02   1.3942801928427008e+02   5.9503310841345694e+01   6.0431028974642615e+01   8.4111878789240748e+01   6.9971505946888186e+01   1.4717782474304988e+02   1.3275466434688920e+02   2.4289504876988880e+02   2.5248109721789496e+02   1.2383198459929615e+02   2.2535088453025139e+02   2.7303489804586459e+01   3.0977252825220663e+01   2.0188802546189177e+02   1.2374654458354486e+02   3.0164911603930784e+02   2.7429411083409491e+02   1.5494662359360194e+02   2.2171657066581824e+02   2.9440342516791066e+01   2.9300913492098498e+01   1.9487550880169411e+02   1.2356545096870890e+02   2.7656717824764684e+02   2.7399068033174012e+02   1.4043002267434184e+02   2.0772557059469906e+02   2.6788063025956628e+01   2.9205796101292734e+01   5.9615089787952961e+01   5.6615917511277573e+01   1.2187598600421617e+02   7.6961533136864716e+01   2.1212979250082293e+02   1.7869053700424553e+02   1.2506072824938674e+02   1.4166549789369157e+02   1.3084427191161632e+02   1.5501778798957329e+02   6.6359466905203206e+01   8.3512118500682902e+01   2.3644017645596119e+01   2.3240108887534344e+01   4.4585838117314886e+01   3.7932024419994988e+01   6.8758710350599699e+01   6.8285377588779824e+01   5.7651018328969961e+01   5.8498856582671877e+01   1.0460965342456117e+02   7.6572167102260480e+01   1.2087647581033245e+02   1.1020790758295348e+02   1.0635328215625798e+02   1.1146913650444678e+02   8.4333940963298588e+01   9.4902094345465912e+01   7.8829561396106968e+01   8.4703685243476031e+01   2.7827635251292116e+02   1.7081469252527285e+02   1.6452001749082939e+02   1.4798003252030176e+02   1.6488880860596012e+02   1.8089728870826121e+02   1.5594194891518919e+02   1.7413495805637049e+02   1.4206933737947648e+02   1.6224297756934027e+02   1.2301080512247955e+02   1.3792986069575747e+02   9.6797964339981434e+01   1.0546013040122470e+02   6.7322618424441103e+01   8.0525147870302547e+01   2.6263678241115144e+01   3.6322515597467650e+01   1.2747976060051814e+01   1.8481438784296873e+01   1.0821492014192971e+02   5.8484585816429401e+01   1.1989314302338477e+02   1.1045214077227693e+02   1.1242181445535667e+02   1.0149527180219117e+02   1.1554591100062420e+02   1.1422046095046579e+02   1.2138801420496269e+02   1.4902620290990168e+02   6.7596351106282739e+01   1.1697161680751871e+02   7.6968611848636883e+01   6.3956000803575868e+01   1.3977301418885469e+02   1.0818746382104622e+02   1.2330096580327833e+02   1.7377174875528053e+02   5.3694939382034939e+01   1.0685659337926251e+02   6.7632508581352127e+01   5.5321742318726621e+01   2.3537105830287788e+02   1.8373765410995819e+02   3.4606547338932870e+02   3.5408807303562901e+02   1.6338440559214226e+02   2.7118856112057188e+02   3.0580138903322371e+01   4.2467568511354592e+01   1.5197770835476086e+02   8.0102700854423645e+01   2.3481938891100015e+02   1.8897937728847248e+02   1.3444075112110903e+02   1.6784650359811755e+02   3.2547059218094539e+01   3.7417515499290907e+01   1.7229403789458257e+02   1.0275113482115447e+02   2.6813483042349912e+02   2.4714893890373952e+02   1.4402610601831154e+02   2.0415132706572649e+02   3.1165947114166567e+01   3.1447099695209168e+01   1.2166627464301499e+02   9.5661811831236662e+01   1.2010988269604586e+02   1.5971345003371746e+02   1.4454631101982599e+02   1.1272591858409851e+02   1.0961459689615731e+02   1.1850336544311092e+02   1.1580048640957891e+02   1.2352013953046276e+02   8.7702881137228445e+01   9.5815812965937369e+01   7.5956923009308426e+01   9.9767854997057327e+01   5.6369016575987509e+01   1.0032591602970763e+02   6.3686580171377976e+01   6.3166089727017088e+01   4.7289790349669012e+01   5.1724703742703007e+01   5.0065223672369257e+01   1.9968085912180005e+01   7.7858167167551869e+01   4.7342671243940515e+01   8.3805576566950478e+01   6.4600002041449059e+01   7.4681677842402181e+01   6.2676435024718032e+01   6.7287174325847062e+01   5.5866610512078665e+01   1.8737889407205876e+02   1.0514938955718588e+02   1.1868845840796718e+02   1.0964726137569399e+02   1.3637551065332124e+02   8.2053903466941989e+01   1.4565037896437232e+02   1.0149695964474805e+02   1.3393230474643877e+02   1.0014201002957316e+02   1.0591485361596266e+02   8.3240589743779822e+01   7.7668316454691336e+01   6.0427820638508571e+01   7.7149132677120463e+01   6.0925925264695636e+01   4.9703119926016647e+01   7.0855706212446307e+01   1.7118192353154100e+01   3.2579574108072023e+01   7.9790965328188236e+01   4.8261648108392926e+01   8.6626880494038559e+01   8.8349136247854020e+01   1.4235844942807640e+02   1.5371402012475355e+02   1.5404476276281540e+02   1.4905909805279146e+02   2.2926532871555301e+02   2.4876526531642662e+02   1.0014802438186037e+02   1.8592239926435840e+02   6.5549619344469477e+01   5.7120646808639627e+01   2.0438957737412616e+02   1.6673734494550226e+02   2.5525788069962871e+02   3.0960112269695463e+02   9.9321043090473040e+01   1.9636901395400989e+02   6.2770115323640667e+01   5.1020646965525408e+01   2.8888852019373957e+02   1.9562517858157912e+02   3.9318673928674843e+02   3.9791174132241139e+02   1.8041886089626269e+02   2.7324678559109032e+02   3.7401394435405848e+01   5.3412166122651890e+01   9.0181172114727616e+01   4.0871421261216788e+01   1.2300323904716181e+02   8.6946212461177495e+01   8.8899823424620607e+01   9.0057765349921453e+01   4.0479608048614168e+01   6.1604271738989482e+01   1.2207212559884553e+02   6.9593661509910078e+01   2.3136478361671996e+02   1.7792348458760651e+02   1.3703411728031594e+02   1.8284390884745312e+02   3.5097328212964506e+01   3.5450487191573153e+01   1.4950989409280683e+02   9.7440478654861465e+01   1.8553228163358870e+02   2.0489314252379526e+02   1.0005551799924562e+02   1.2526773347121998e+02   9.6855363814207948e+01   1.0385667774165090e+02   1.2382133093860438e+02   1.2683925014202151e+02   1.3960159263011104e+02   1.5033077945360358e+02   1.6981553053082217e+02   1.9154728860242940e+02   1.5978950108811011e+02   1.9176038599946855e+02   8.9803942442574225e+01   1.4044774511267570e+02   3.5009635548269969e+01   6.7105512478309194e+01   2.4270285623471118e+01   3.7380366166694166e+01   1.7322316731573604e+01   2.4815882279206015e+01   2.3922157143830152e+01   2.2366386228082920e+01   3.1843923051363596e+01   2.6205706477576140e+01   4.2517777726121992e+01   3.4408515857832768e+01   1.6769517063987584e+02   8.2981277399925688e+01   4.0309758811142238e+01   7.9537705135708777e+01   2.3259813008551244e+01   2.4865060046939139e+01   2.6329556009844890e+01   2.4776767342773514e+01   2.6044947506816623e+01   2.9228356063031658e+01   2.5636251282191264e+01   3.2141521845700098e+01   3.1853419232993925e+01   3.2738666611760820e+01   7.0365588344542104e+01   5.3563027956107433e+01   8.0881082132485290e+01   1.0552547203043100e+02   5.1180583807813520e+01   8.2218373636533471e+01   6.1594838417241263e+01   5.7773100586715088e+01   1.1441531201317484e+02   9.4704322858484488e+01   2.1711146411333061e+02   2.0202720981827864e+02   1.9387171771988699e+02   1.8316468820476766e+02   3.1578067753830584e+02   3.1006275809720563e+02   1.4049003534381075e+02   2.3569838861216542e+02   5.4523552964375966e+01   5.6131398895009852e+01   2.7544967593393841e+02   1.9333990536283861e+02   3.7708364010272038e+02   4.0060056070386258e+02   1.5463828194456116e+02   2.6767342002630636e+02   5.2683479133067252e+01   5.0248391966372658e+01   2.9778988049063639e+02   1.8657215101758678e+02   3.6510872223111176e+02   3.7694508664337025e+02   1.6878901889873043e+02   2.2976951651088416e+02   4.5100822497945323e+01   5.6827916800836988e+01   4.2870012275404527e+01   3.3045845205688920e+01   6.6822338523808938e+01   6.6523407034271671e+01   9.0692765839920014e+01   1.0532964059423095e+02   6.2266083111967816e+01   1.0359835774650404e+02   6.8717998416936013e+01   4.1257167622872764e+01   1.7441475504806414e+02   1.1765274510889881e+02   1.2224024436625591e+02   1.6507144262837221e+02   4.3759029718353744e+01   5.1916470633977042e+01   1.2234288870582070e+02   7.5674166044686956e+01   1.8338657108503554e+02   1.6116335191858846e+02   1.1572552528364864e+02   1.2405779563958993e+02   1.3164754809446111e+02   1.4205323355448104e+02   9.9219647815032630e+01   9.9594216623526918e+01   1.2875965797847431e+02   1.3086794249069331e+02   1.5139770607396409e+02   1.5225479278831423e+02   1.4478452095766147e+02   1.5514587290806401e+02   1.1121848407683092e+02   1.3336782995137492e+02   6.6701107133073862e+01   9.4488909840997096e+01   5.2417645212190045e+01   6.5594158205087126e+01   5.4313597000186043e+01   7.4767133891098226e+01   4.6684154350731511e+01   7.6864887407477084e+01   3.3181314937923204e+01   5.7244548848180941e+01   2.7180331228701302e+01   3.8125358619706269e+01   1.2585594711453700e+02   9.7553372522882412e+01   1.2023344493216634e+02   1.9917842498661543e+02   1.1724284387322923e+02   1.7324429855730688e+02   1.1376450820537646e+02   1.7109974570630405e+02   1.0368320287787870e+02   1.6313439279972670e+02   8.4428291534603161e+01   1.4328410764512719e+02   5.2748392655079307e+01   1.0209716306029806e+02   7.3317139505870855e+01   7.5151350242900136e+01   1.2142165646729967e+02   9.9602342425434358e+01   9.4575675957014155e+01   1.2023508716350844e+02   8.9679992130013332e+01   7.8093414106101761e+01   1.1523817084942662e+02   9.6457730090865141e+01   2.5664265393536232e+02   2.0596552491908042e+02   2.0823625114479137e+02   2.0026930623685459e+02   3.3844738657231147e+02   3.2117674772256697e+02   1.5784