<?xml version="1.0"?>
<VTKFile type="UnstructuredGrid"  version="0.1"  >
<UnstructuredGrid>
<Piece  NumberOfPoints="2937" NumberOfCells="5112">
<Points>
<DataArray  type="Float64"  NumberOfComponents="3"  format="ascii">-20 2.5 0  -20 0 0  -1 0 0  -0.9996988186962042 0.02454122852291233 0  -0.9987954562051724 0.04906767432741797 0  -0.9972904566786902 0.07356456359966773 0  -0.9951847266721968 0.09801714032956083 0  -0.99247953459871 0.1224106751992163 0  -0.989176509964781 0.1467304744553618 0  -0.9852776423889412 0.1709618887603012 0  -0.9807852804032304 0.1950903220161286 0  -0.9757021300385285 0.21910124015687 0  -0.970031253194544 0.2429801799032641 0  -0.9637760657954398 0.2667127574748985 0  -0.9569403357322088 0.2902846772544624 0  -0.9495281805930367 0.3136817403988914 0  -0.9415440651830207 0.3368898533922203 0  -0.9329927988347388 0.3598950365349883 0  -0.9238795325112867 0.3826834323650899 0  -0.9142097557035307 0.4052413140049899 0  -0.9039892931234433 0.427555093430282 0  -0.8932243011955152 0.4496113296546069 0  -0.8819212643483549 0.4713967368259979 0  -0.8700869911087113 0.4928981922297841 0  -0.857728610000272 0.5141027441932218 0  -0.8448535652497071 0.5349976198870972 0  -0.8314696123025453 0.5555702330196022 0  -0.8175848131515836 0.5758081914178454 0  -0.8032075314806448 0.5956993044924335 0  -0.7883464276266062 0.6152315905806269 0  -0.773010453362737 0.6343932841636455 0  -0.7572088465064846 0.6531728429537766 0  -0.7409511253549589 0.6715589548470186 0  -0.7242470829514668 0.6895405447370671 0  -0.7071067811865475 0.7071067811865476 0  -0.6895405447370669 0.7242470829514669 0  -0.6715589548470184 0.740951125354959 0  -0.6531728429537765 0.7572088465064847 0  -0.6343932841636454 0.7730104533627371 0  -0.6152315905806267 0.7883464276266063 0  -0.5956993044924334 0.8032075314806449 0  -0.5758081914178453 0.8175848131515837 0  -0.555570233019602 0.8314696123025455 0  -0.534997619887097 0.8448535652497072 0  -0.5141027441932217 0.8577286100002721 0  -0.492898192229784 0.8700869911087115 0  -0.4713967368259977 0.881921264348355 0  -0.4496113296546067 0.8932243011955152 0  -0.4275550934302819 0.9039892931234434 0  -0.4052413140049897 0.9142097557035307 0  -0.3826834323650897 0.9238795325112867 0  -0.3598950365349882 0.9329927988347388 0  -0.3368898533922199 0.9415440651830208 0  -0.3136817403988914 0.9495281805930367 0  -0.2902846772544622 0.9569403357322089 0  -0.2667127574748983 0.9637760657954398 0  -0.2429801799032639 0.970031253194544 0  -0.2191012401568697 0.9757021300385286 0  -0.1950903220161282 0.9807852804032304 0  -0.1709618887603012 0.9852776423889412 0  -0.1467304744553616 0.989176509964781 0  -0.1224106751992162 0.99247953459871 0  -0.09801714032956065 0.9951847266721969 0  -0.07356456359966733 0.9972904566786902 0  -0.04906767432741801 0.9987954562051724 0  -0.02454122852291214 0.9996988186962042 0  6.123233995736766e-17 1 0  0.02454122852291226 0.9996988186962042 0  0.04906767432741813 0.9987954562051724 0  0.07356456359966745 0.9972904566786902 0  0.09801714032956077 0.9951847266721968 0  0.1224106751992163 0.99247953459871 0  0.1467304744553617 0.989176509964781 0  0.1709618887603014 0.9852776423889412 0  0.1950903220161283 0.9807852804032304 0  0.2191012401568698 0.9757021300385286 0  0.242980179903264 0.970031253194544 0  0.2667127574748984 0.9637760657954398 0  0.2902846772544623 0.9569403357322089 0  0.3136817403988916 0.9495281805930367 0  0.3368898533922201 0.9415440651830208 0  0.3598950365349883 0.9329927988347388 0  0.3826834323650898 0.9238795325112867 0  0.4052413140049899 0.9142097557035307 0  0.4275550934302822 0.9039892931234433 0  0.4496113296546066 0.8932243011955153 0  0.4713967368259978 0.8819212643483549 0  0.4928981922297841 0.8700869911087113 0  0.5141027441932217 0.8577286100002721 0  0.5349976198870973 0.844853565249707 0  0.5555702330196023 0.8314696123025452 0  0.5758081914178453 0.8175848131515837 0  0.5956993044924335 0.8032075314806448 0  0.6152315905806268 0.7883464276266062 0  0.6343932841636455 0.773010453362737 0  0.6531728429537768 0.7572088465064845 0  0.6715589548470183 0.7409511253549591 0  0.6895405447370669 0.7242470829514669 0  0.7071067811865476 0.7071067811865475 0  0.724247082951467 0.6895405447370668 0  0.7409511253549591 0.6715589548470183 0  0.7572088465064846 0.6531728429537768 0  0.773010453362737 0.6343932841636455 0  0.7883464276266063 0.6152315905806268 0  0.8032075314806449 0.5956993044924334 0  0.8175848131515837 0.5758081914178453 0  0.8314696123025452 0.5555702330196022 0  0.8448535652497071 0.5349976198870972 0  0.8577286100002721 0.5141027441932217 0  0.8700869911087115 0.492898192229784 0  0.881921264348355 0.4713967368259976 0  0.8932243011955153 0.4496113296546065 0  0.9039892931234433 0.4275550934302821 0  0.9142097557035307 0.4052413140049899 0  0.9238795325112867 0.3826834323650898 0  0.932992798834739 0.3598950365349881 0  0.9415440651830208 0.3368898533922201 0  0.9495281805930367 0.3136817403988915 0  0.9569403357322088 0.2902846772544623 0  0.9637760657954398 0.2667127574748984 0  0.970031253194544 0.2429801799032639 0  0.9757021300385286 0.2191012401568698 0  0.9807852804032304 0.1950903220161282 0  0.9852776423889412 0.1709618887603012 0  0.989176509964781 0.1467304744553617 0  0.99247953459871 0.1224106751992162 0  0.9951847266721969 0.0980171403295606 0  0.9972904566786902 0.07356456359966743 0  0.9987954562051724 0.04906767432741801 0  0.9996988186962042 0.02454122852291229 0  1 0 0  20 0 0  20 2.5 0  0 2.5 0  -10 2.5 0  10 2.5 0  -10.5 0 0  -5 2.5 0  10.5 0 0  5 2.5 0  -5.75 0 0  5.75 0 0  -15.25 0 0  -15 2.5 0  15.25 0 0  15 2.5 0  -17.625 0 0  -17.5 2.5 0  17.5 2.5 0  17.625 0 0  12.5 2.5 0  12.875 0 0  -12.5 2.5 0  -12.875 0 0  -2.5 2.5 0  2.5 2.5 0  -8.125 0 0  -7.5 2.5 0  8.125 0 0  7.5 2.5 0  -3.375 0 0  3.375 0 0  -18.75 2.5 0  20 1.25 0  16.4375 1.19375 0  -16.25 2.5 0  13.75 2.5 0  -14.0625 0 0  -11.6875 0 0  11.6875 0 0  8.75 2.5 0  -8.75 2.5 0  6.9375 0 0  6.25 2.5 0  -6.25 2.5 0  -9.3125 0 0  -6.9375 0 0  9.3125 0 0  11.25 2.5 0  -11.25 2.5 0  3.75 2.5 0  4.5625 0 0  -4.5625 0 0  -3.75 2.5 0  -13.75 2.5 0  14.0625 0 0  -16.4375 0 0  -20 1.25 0  -18.8125 0 0  18.75 2.5 0  -18.21875 1.2359375 0  18.125 1.278125 0  -15.84375 1.2125 0  -14.375 1.30859375 0  14.65625 1.203125 0  2.1875 0 0  -2.1875 0 0  13.125 1.315625 0  3.125 1.315625 0  -3.125 1.315625 0  -12.28125 1.1890625 0  -5.15625 1.184375 0  11.09375 1.184375 0  5.625 1.325 0  -10.97262068800044 1.220713793599868 0  9.375 1.32734375 0  -6.875 1.32734375 0  -9.67626828410207 1.24449497187193 0  8.061334925608099 1.312208731402025 0  -8.188665074391901 1.312208731402025 0  -1.25 2.5 0  1.25 2.5 0  4.37465139623265 1.41327350462657 0  16.25 2.5 0  6.84375467392576 1.430449641528851 0  -1.846573640185365 1.334702047669377 0  1.846573640185365 1.334702047669377 0  -17.02955351149946 1.396129584721571 0  16.4375 0 0  18.8125 0 0  -13.31314667860176 1.511193493282891 0  -4.122005747945582 0.961844908681634 0  12.12799425205442 0.961844908681634 0  15.54930641305724 1.660405980876393 0  19.0578783583929 0.9559530595267438 0  8.71875 0.6864560603786576 0  -7.53125 0.6864560603786576 0  -0.6257799091428727 1.819008129832856 0  0.6257799091428734 1.819008129832855 0  6.291331569065717 0.7194652423646902 0  -19.11204717950418 0.9044926794710327 0  -4.488713231834613 1.772186102355655 0  11.76128676816539 1.772186102355655 0  -19.28185607205105 1.781856072051052 0  19.30868080343342 1.808680803433421 0  9.90625 0.6371857066656857 0  -6.34375 0.6371857066656857 0  3.796921710049233 0.7617406159238448 0  7.392020585015773 0.7480839107774819 0  -8.910372062800235 0.7929553447587234 0  10.2506781820361 1.451853913138859 0  -5.999321817963904 1.451853913138859 0  4.957643119381741 0.7716423099297361 0  17.29984375 0.8640625 0  15.41193625859067 0.8279888354083842 0  -13.72251704931534 0.7728002662082776 0  16.875 2.5 0  17.12178336313261 1.690954734835967 0  -11.64001625260176 1.74572103154608 0  2.477726735235857 0.7850262278604345 0  13.46875 0 0  13.765625 0.7802887470308788 0  -2.78125 0 0  -2.477726735235857 0.7850262278604346 0  -10.33383379274331 1.744431431923121 0  13.91957519050334 1.653419259628842 0  -15.08147780274903 0.8341506893754731 0  -15.14066649024666 1.671962869821843 0  -8.950686484882164 1.678622661163363 0  -17.55392917606836 0.794731598412167 0  -16.80247533599675 0.6688259240674158 0  -12.94289066923278 0.7766744225472476 0  -9.90625 0 0  -10.31601468672093 0.7730817089126454 0  -18.21875 0 0  -12.28125 0 0  -17.68515668569534 1.768907656575843 0  18.21875 0 0  10.85059123027421 1.880344717307101 0  -5.399408769725794 1.880344717307101 0  -3.738137326223278 1.749164834446819 0  -3.125 2.5 0  12.46235897590077 1.601301060091387 0  -11.09375 0 0  -11.61661448001209 0.7781698802173554 0  -15.625 2.5 0  -1.764022608759088 0.6027229563180789 0  1.59375 0 0  -8.125 2.5 0  8.125 2.5 0  8.713468311289519 1.727645658498745 0  9.375 2.5 0  -7.536531688710481 1.727645658498745 0  -6.875 2.5 0  14.375 2.5 0  17.78381794101733 1.874391370085592 0  18.59891476281433 1.80649740393129 0  -18.58835555265984 1.824268641341969 0  1.806126122135773 0.6510673837470153 0  -16.875 2.5 0  -16.36681393636619 1.755298393865037 0  -16.13072438662071 0.6014017614895231 0  -13.92460230791385 1.83195710210235 0  -14.40198779087891 0.6105385965811564 0  20 0.625 0  19.40625 0 0  14.6875 1.888836596385542 0  14.65625 0 0  12.78248197181444 0.6991460920542635 0  -3.467518028185561 0.6991460920542635 0  13.125 2.5 0  2.491957142932539 1.738660596534321 0  3.125 2.5 0  1.875 2.5 0  3.718973573227002 1.75927763286174 0  -2.491957142932539 1.738660596534321 0  -1.875 2.5 0  -9.375 2.5 0  6.2001972846108 1.772767401802766 0  5.625 2.5 0  5.027483518098582 1.760895488350309 0  5.625981449127788 0.6566963631252629 0  -12.30101114679273 1.859484693920165 0  9.742489932362783 1.884363450023167 0  -6.507510067637216 1.884363450023166 0  1.13492303295015 1.283502262067074
[...]
<PointData  Scalars="f_3791931"> 
<DataArray  type="Float64"  Name="f_3791931"  format="ascii">8.9466653420394550e+01  8.9330687336527845e+01  9.1731831369625880e+01  9.1705040962301993e+01  9.1693146226799527e+01  9.1768764940593428e+01  9.1800455802622025e+01  9.1791710653545010e+01  9.1909759140904967e+01  9.1973446838672260e+01  9.1708452815290869e+01  9.2198942538096446e+01  9.2366273077849669e+01  9.2529126754003187e+01  9.2663933897985800e+01  9.2803511231281959e+01  9.3076932226298382e+01  9.3279983519592733e+01  9.3554269547343168e+01  9.3871582307062795e+01  9.4076360966325865e+01  9.4386175239446061e+01  9.4698614380275885e+01  9.4981587094722613e+01  9.5290784941712730e+01  9.5667846632619785e+01  9.6025872186714182e+01  9.6537862844871540e+01  9.6854701996108631e+01  9.7208769653219406e+01  9.7637418999964083e+01  9.7967698076082627e+01  9.8559857191055585e+01  9.9109034972087613e+01  9.9468162893764614e+01  9.9666149049376401e+01  9.9962769006711824e+01  1.0021548590202414e+02  1.0017918992715393e+02  1.0001112464480751e+02  1.0041423198054608e+02  1.0094879850774029e+02  1.0130265119128266e+02  1.0064963130025787e+02  1.0106862314708860e+02  1.0135950835925726e+02  1.0044196126129378e+02  1.0147918292996965e+02  1.0144348113858108e+02  1.0082992241299526e+02  9.9911170529479605e+01  1.0056054106281302e+02  9.9580819906193781e+01  9.9419957079753857e+01  9.7521665546817772e+01  9.6977006723998613e+01  9.5812139743309160e+01  9.4817023252135940e+01  9.3842695119151060e+01  9.2688096814509692e+01  9.1100684895513552e+01  9.0165207035043039e+01  8.7952246645543312e+01  8.7339206489665557e+01  8.5027231479554601e+01  8.3216445255972090e+01  8.1085143065677940e+01  7.9470619687587927e+01  7.6471907320026858e+01  7.4877786491638687e+01  7.2792408719437162e+01  6.9048263898774067e+01  6.7349022273709707e+01  6.5476559610729424e+01  6.2842913543278414e+01  5.9306356161108788e+01  5.8044406302065553e+01  5.5035447068966555e+01  5.0860730605998015e+01  4.9770231796988796e+01  4.9159613955976482e+01  4.5457873944356344e+01  4.2204583147537129e+01  4.0191600216905300e+01  3.8192763703073958e+01  3.5537901730885814e+01  3.3037451504479748e+01  3.0494582594269051e+01  2.8303835446195428e+01  2.4415386723211586e+01  2.3252887743170927e+01  2.1360073654862163e+01  1.9788826164202842e+01  1.7509022947117646e+01  1.6071693137499597e+01  1.3644582222257510e+01  1.1469401637240999e+01  9.7628928464628082e+00  8.8963874352613832e+00  7.7907458349834977e+00  5.5482911045142158e+00  4.7717608599779222e+00  3.4045306807857831e+00  2.1218280670882348e+00  1.0844011070131261e+00  4.9885448050736297e-01  -1.4242170351214138e+00  -1.4762425788421500e+00  -2.7352448238927320e+00  -3.1754955349922187e+00  -3.6031014062269291e+00  -4.7451262385217134e+00  -5.0680522763561813e+00  -5.5330197725158063e+00  -5.8847984041616348e+00  -6.1848579278690812e+00  -6.2632858900237371e+00  -6.5230022384929418e+00  -6.6170000823010788e+00  -6.5018996196161316e+00  -6.3568459172202791e+00  -6.2243255131186377e+00  -6.0584514338766624e+00  -5.8200310750720590e+00  -5.5218414375711671e+00  -5.2294484417639557e+00  -4.9949053883940895e+00  -4.7917488578375345e+00  -4.6130943139588219e+00  -4.5140694325415964e+00  -4.4870990897176224e+00  0.0000000000000000e+00  0.0000000000000000e+00  6.8924729439041613e+01  8.9324586164350237e+01  1.0539747133470544e-03  8.9324615551342177e+01  8.9325832003784583e+01  2.1122036930115431e-03  1.2322471404968581e-01  8.9327114166771793e+01  2.0353023395844491e-01  8.9324893909251557e+01  8.9326200843925562e+01  -1.7716702282781624e-04  -1.8600312749197503e-04  8.9322966210640345e+01  8.9344986057997062e+01  -1.1253587204508594e-04  -9.7555442346518908e-05  -1.1059777130321750e-04  -7.7172257476731720e-05  8.9324711863647352e+01  8.9324748149770031e+01  8.8703686855442456e+01  1.9052034688596045e+00  8.9324644196362968e+01  8.9324668366848869e+01  2.6774838034575220e-02  1.1879539495014919e-02  8.9415022219745580e+01  1.2397030716445301e+00  8.9388296730812613e+01  0.0000000000000000e+00  -1.4340088359949900e-04  8.9330796066719842e+01  -1.8909665650950950e-04  8.9324855444745353e+01  8.9324668527339824e+01  4.1432897236038096e-04  3.0140696164223319e-03  8.9324554512955601e+01  7.5840893687884006e-02  3.9302757144617430e-02  8.9324130566362413e+01  8.9324586738808293e+01  8.9325270797148391e+01  7.5168076173952689e-03  1.7493836475619532e-04  8.9324621092538294e+01  3.7618726651923651e-01  5.0759345767277941e-01  8.9346164865221709e+01  8.9271214445054724e+01  8.9324954312988723e+01  -1.8277422112602940e-04  8.9324639996104281e+01  8.9428386081692807e+01  8.9318648822979299e+01  -5.8721786381849546e-05  8.9341838485482441e+01  -7.9451599815733400e-05  8.9327443187000483e+01  8.9325605482849909e+01  -1.9285168384118771e-04  2.7407035971300990e+00  8.9952907492413473e+01  -1.6641452482679968e-04  2.1912182338849915e+00  8.9190476629824104e+01  8.9324754571138399e+01  8.9312653464421274e+01  5.4350133187869548e-04  2.2095400464485596e-01  8.9324635107640475e+01  4.3673094359569673e-03  8.9323388637145513e+01  8.9324560314114919e+01  2.0556674797876005e-02  8.9324340169786254e+01  8.5926973895621984e+01  2.0108117537717522e+01  7.0978956854448261e-01  -1.4506985756676991e-04  7.2829291705380522e-02  8.8716305979003437e+01  8.0382166966967876e+00  8.9333591688205090e+01  -1.4195193138493264e-04  -4.8474334806773089e-05  8.9325073610150724e+01  8.9285050646217087e+01  4.0192669597929659e-05  -1.7358401044746376e-04  -4.0010334571452497e-05  1.0648747125441969e-02  8.9324214819610759e+01  8.1513153476977152e+01  4.4036558369265187e+01  9.9389279542676651e-02  8.9347914425770028e+01  8.9299620887635655e+01  3.1127861988027088e-05  8.9390902789819705e+01  -2.9810376469301528e-05  3.0602063150448871e-03  8.9322967417368943e+01  8.7594434127433007e-01  3.7063141677687983e-02  8.9324514420072461e+01  1.5030769316180892e-03  8.9321180714127550e+01  3.1467821628122467e-01  -1.1188883944591545e-04  -1.7507770913421098e-04  8.9324890069413129e+01  -1.1995748115435021e-04  -1.1873073689208654e-04  8.9324705702413169e+01  3.1531962711667370e+00  -1.5303353098025874e-04  -1.8118729074070771e-04  8.9588351365262881e+01  8.9388127245391559e+01  8.9324604214521202e+01  -2.0176224349722219e-04  8.9325492205323897e+01  8.9327116488032459e+01  8.9324508562707166e+01  8.9330223040381938e+01  8.9327073496797610e+01  8.9324770674956284e+01  8.9324596532889558e+01  8.9324592455689327e+01  8.9321634686879449e+01  8.9324701579789121e+01  8.9345282754153033e+01  -7.3866484450558161e-05  5.1686180686297820e-04  8.9317310911185913e+01  8.9256291710663817e+01  8.9122280887420075e+01  -1.1374554323241644e-04  8.9324641679651819e+01  8.9324654583691455e+01  8.9327736489150624e+01  8.9936575387044400e+01  2.2074752809773135e+00  8.9324548671179713e+01  5.4341410657698028e-03  9.0488801510621112e-03  1.9515577887097460e-03  8.9324168721748549e+01  8.9325012407413681e+01  -1.9264031580526220e-04  -9.3764894551832842e-05  -6.0911940063154930e-05  8.9362944413579143e+01  5.2742046754211218e+00  8.9335543970648970e+01  8.9331758325219766e+01  8.9325800532006426e+01  8.9325464410744928e+01  8.9324968485933283e+01  0.0000000000000000e+00  -2.3593981844308865e-05  -1.9492463025070440e-04  -1.8779188981434393e-04  -8.6208905728394681e-05  8.9300075827012776e+01  -1.6204124907449660e-04  4.4793730482226319e+00  7.7052610489168472e-01  7.8432751187410457e+00  1.3577566309713489e+00  8.8903613466862794e+01  8.7708229316120637e+01  8.9324580002396843e+01  1.2897819044296860e-01  6.4176856083459285e-02  3.8055566381863359e-01  1.7306730462958611e-01  8.9324809357025757e+01  2.2874610937238891e-03  8.9323317641074397e+01  2.1265046634818415e+01  8.8068159749650277e+01  3.8737070722098886e-04  8.9310347221493942e+01  1.3589294719695247e-03  8.9320208605787172e+01  -1.5182634378479610e-04  1.5399690855096249e+00  -1.6078743717601020e-04  -1.5282225928219944e-04  8.9324432754793293e+01  2.0345076821212209e-02  3.5827291449700836e-02  8.7687803188380116e+01  1.4414713405075521e+01  8.9324641955967309e+01  9.1622860165328868e-05  8.9372011216937508e+01  8.9324568210751053e+01  8.9324559052763306e+01  -8.6418212006429419e-05  8.9359940648727601e+01  8.9324783378286767e+01  8.9335270291709861e+01  8.9317645868148134e+01  8.9382116862008786e+01  8.9325408823649042e+01  2.2188732966317067e-02  2.0120386496849391e-01  6.6935093891174958e+01  8.9324600908867254e+01  -7.2613491754222728e-05  8.9324654999889418e+01  8.9440613667094425e+01  -1.7799593305500470e-05  8.9307543883390750e+01  4.5119111488174205e+01  8.2639542748736332e+01  -1.7107213628637062e-04  8.9465623102030463e+01  0.0000000000000000e+00  -2.2954196578311145e-05  5.6446850748165895e-04  8.9325016023123197e+01  8.9328972208424162e+01  8.9324621149800137e+01  -1.3154113335886073e-04  8.9331072149358647e+01  1.0393864303352679e-03  -1.8679554752109570e-04  8.9326174046242301e+01  8.9324445860267602e+01  1.6118659016497297e-02  8.9324686659841191e+01  8.9323926262157087e+01  5.5609710712639744e-03  9.0520012615521821e+01  8.9324908999300305e+01  8.9324797283725133e+01  3.2060737069456607e-01  8.9324588955701827e+01  4.6058664157001411e-02  7.7131705485664481e-01  8.9325997895460787e+01  4.0750411611079358e-03  1.2817973725544310e-01  8.9324788340989713e+01  1.4993588295613210e-02  8.9324077428789977e+01  8.9324855321269865e+01  2.0101541187344516e+00  -1.2104240354489167e-04  2.1864990244905234e+00  -1.7579562352005240e-04  8.9144254395375469e+01  2.1115837064283216e-01  8.9329065652118047e+01  -6.0574524017764490e-05  4.7650341909849447e-01  8.9325127586429986e+01  8.9336058289375814e+01  5.8386248865933209e-02  -1.6161136311628859e-04  5.7220193766769989e-01  -1.0150392379400552e-04  8.9324865314662745e+01  8.9325222675234414e+01  -1.9025391006855891e-04  8.9322381877049779e+01  1.0261673092046297e-03  8.9324960172550121e+01  5.4149266801352507e-02  8.9352604127777141e+01  8.9303528264540276e+01  1.8242737415231271e-04  8.9247320068292950e+01  1.1343339463426701e-01  8.9325153237901688e+01  8.9324119640519299e+01  1.1685112880028926e-02  8.9323986499407994e+01  4.1964313632049093e-03  -9.2388719870202548e-05  8.9328111320389709e+01  3.5545412855491905e-02  -2.3052690417931582e-05  8.9315871382038765e+01  1.7352157449015065e-04  -1.7970002006903761e-04  -1.8314907156669297e-04  1.0441584130796993e+00  8.9329836350938564e+01  3.4699817861286608e-01  -6.0547338195301518e-05  -2.2558289425941089e-05  -1.5472299808056978e-04  8.9289832971788798e+01  8.9337173172901004e+01  8.8633295814632191e+01  6.8144370658209441e+00  8.9324606234427549e+01  8.9324428744000599e+01  8.9324700722447616e+01  -4.6805197123116898e-05  -1.9456724965148011e-04  -1.8953584905318440e-04  -2.0028321617901175e-04  8.9327675273145573e+01  -1.9568136741341215e-04  8.2343218607899544e+00  -9.1577181797430023e-05  3.5115146571491738e+00  8.9062378508881963e+01  8.9336559571713153e+01  8.9371983717003857e+01  8.9352184512539750e+01  8.9326045379398423e+01  -1.3632557527881148e-04  9.0558841509158654e+01  8.5748728510885812e+01  2.7447291182561703e+01  7.8274343075259168e+01  5.6790371182247910e+01  8.9324714766879879e+01  8.9324874507633467e+01  -1.6622298511502124e-04  7.1191270780309912e-01  -1.3622419099081827e-04  8.9324549360671085e+01  -1.2559342648441675e-04  -1.0345651864309374e-04  -1.2133939760566817e-04  8.8458459932507763e-04  8.9319460650479485e+01  8.9323732462539567e+01  6.6838090837068893e-03  8.9314802562475734e+01  1.5824096420572368e-04  -1.9923479384025488e-04  1.5560323378158641e-02  8.9324513696014307e+01  8.9383009316823603e+01  6.4713769189391937e-02  8.9324655326793348e+01  8.9355008756084558e+01  1.1714096263855482e-01  1.5078272886639502e-01  8.9324635388110423e+01  8.9395119618983003e+01  -1.1031347976561742e-04  8.9078528787968025e+01  2.4713303162562076e-04  8.9310077824553758e+01  -2.7266548575959390e-06  8.9292710149250624e+01  8.9324432768654987e+01  8.9324553142904762e+01  8.9324534961861275e+01  -4.0549849560726633e-05  -1.6252893530886042e-04  8.9324486330329648e+01  7.6853137386307239e+01  5.2976813379057290e+01  -4.1892465287296652e-05  1.0941284212879750e-03  1.9132966241385630e-03  8.9320473615110615e+01  8.9322154877914954e+01  8.9317708537995543e+01  2.6739833263986646e-03  8.9500063670815948e+01  8.9493892736961087e+01  -1.7036119306216972e-05  8.9324517675776704e+01  4.9538337828293914e-02  8.3955406917331395e-03  8.9389502668382121e+01  1.1157913221719835e+00  4.4822333819958544e-02  5.7458776243794273e-02  8.9324582350740357e+01  3.7814143223159477e-03  2.2594593798755764e-03  8.9323799565192417e+01  1.3851432030252537e+00  7.8540765237214116e-01  8.9414286526688457e+01  5.0901881001316096e-01  3.0945982674818862e-01  -2.0099378397454235e-04  9.1042239077842311e+01  8.9334409830374952e+01  1.8358262603795869e-05  8.9326726405858921e+01  8.8504543770639373e+01  -1.3347749104867055e-05  8.9333416730259017e+01  -1.8524708911778269e-04  3.7007037158182030e-03  8.9326092576414950e+01  8.9325403931679134e+01  8.9326112970524392e+01  8.9324665907925962e+01  8.9324663502096655e+01  4.3698158497771106e-01  8.9324451707501623e+01  8.9324520568516647e+01  8.9324535514049998e+01  3.4420386737529725e+01  4.6963070234213294e-03  8.9324259953709856e+01  8.9325103319112230e+01  8.9324747279305427e+01  8.9324918537009225e+01  -1.7848831158133677e-04  8.9330685883509744e+01  2.9506719313197097e-02  8.9509823393839838e+01  2.2286338625530884e+00  8.9324354161476577e+01  8.9997849819279437e-03  -6.7864645438648220e-05  -7.6536203005516626e-05  8.9327520720422058e+01  8.9324573492274823e+01  8.9254823696296597e+01  5.2299679810623836e+00  2.4621432455772252e-01  -1.5932929308240838e-04  8.5043414283106969e+01  8.9236341894532416e+01  3.2864020202511579e+00  8.9324598743684589e+01  8.9324580767364338e+01  8.9322976161659852e+01  8.9622864198717934e+01  8.9433379437622406e+01  4.6723478531986032e-03  8.9324314610812280e+01  8.9339279419951410e+01  8.9342342897418689e+01  -1.8618261880856641e-04  -9.5991400661108196e-05  7.2110994961470136e-03  -1.4040944915906078e-04  8.9324624238989287e+01  -1.2312406802955834e-04  8.9326737341667780e+01  1.4916839385877794e+00  -1.8005539799380359e-04  2.1496413817325125e-01  8.9324662034698321e+01  2.2745486712789944e+00  8.9324342720647181e+01  8.9324605108135017e+01  8.9325683576818093e+01  6.8191300122450685e-04  8.9336869549934093e+01  7.2342337099571641e-01  8.9371922387791514e+01  2.3967775743610930e-02  8.9349854235134345e+01  8.9332445678878855e+01  -1.6097439201685643e-04  8.9324754486345697e+01  8.9324613422277807e+01  1.3084614419412346e+00  8.9324723871140151e+01  8.8563819429693891e-01  2.7863008440989826e-02  8.8309896457225978e-03  1.1474853957897874e+01  1.5895431030776095e+01  8.9300701417964930e+01  8.9160213352504883e+01  5.7314312432911745e+00  2.3731326909506442e-01  0.0000000000000000e+00  -1.4029495542835016e-05  8.4613076538454346e-02  8.9324696248995110e+01  8.9324692777020672e+01  8.9324767574739539e+01  -7.5070942008758837e-05  8.9326352647142627e+01  -8.0418053962554736e-05  -1.8654440959941251e-04  1.0394581617650854e-01  8.9323824282605770e+01  1.4547277226780515e-02  8.9348262972170247e+01  8.9318357334941723e+01  8.9231993293852582e+01  8.7763583147508157e+01  8.1352687006949018e-02  8.9324366142697926e+01  8.9325408122985223e+01  8.9328284321789141e+01  8.9329619188660160e+01  1.4537755017025866e-02  8.9324247270318324e+01  2.8879514843939522e+00  5.1297069976604870e-01  1.0197803084396173e-01  8.1609557201711425e-02  8.9324823789726977e+01  3.0885251433212475e+00  6.9748719876425820e-04  8.9338571334449554e+01  8.9329433529215052e+01  8.9333108403694453e+01  3.0317978637387988e+01  -1.7283500334108206e-04  8.9235357930090672e+01  1.6395312856435026e-02  3.5598430523337310e-01  5.8194474744972635e-01  -1.1782593309798143e-04  8.9331127156362840e+01  1.4673670314363243e-03  8.9348272493600547e+01  1.5610180826135949e+00  3.0038236925762180e-01  8.9342828569238193e+01  -6.2367402152242043e-05  9.3755994251638365e-04  8.9322352653290707e+01  3.5558326347822874e-04  8.9320535077228655e+01  -1.9065461616237195e-04  2.0416558179758886e-05  8.9310623823675371e+01  8.9080770066318252e+01  8.9324619425890717e+01  -1.4202322247213787e-04  8.5719097935251781e+01  4.9772021419291504e-02  2.8467982364860665e-02  1.6466283825663369e-01  8.9283836447847150e+01  9.0747563396031381e+01  9.6664374872824297e+00  1.6407028680873794e+00  1.5750812715634169e+01  -1.5348986239804112e-04  -1.8401255481439706e-04  8.9324669072321541e+01  1.3835736427869536e-03  8.9323455358068614e+01  8.9324173544758793e+01  8.9324155920875754e+01  1.4130676024263790e-03  2.6539876056847858e-03  8.9324594537788641e+01  8.9324585374335555e+01  8.9324894143217364e+01  -9.4512350038646064e-05  -6.3150729911456814e-05  6.3803229326712807e-01  8.9324607833844141e+01  -4.5046913308149942e-05  8.9370287772330627e+01  8.9325410437917455e+01  -1.2551864682662018e-04  -2.8521886430654214e-05  8.9360642806594626e+01  8.9273035057919486e+01  -1.2898247596750335e-04  8.9326233876545118e+01  3.7073007048856299e-02  8.9324597623127602e+01  8.9324874768681937e+01  8.9324774195548102e+01  8.6386092108859010e-04  8.9315318817395038e+01  8.9324546531562973e+01  -9.0759977233820466e-05  8.9355233574941153e+01  8.9373113269869506e+01  8.9325662405404586e+01  8.9324799998329055e+01  8.9329233945824740e+01  8.9325561685516277e+01  8.9325320940114281e+01  8.9325257495815279e+01  -6.3537235850385268e-05  -1.0617729876619490e-04  -1.9273292468789335e-04  -1.9550292897361387e-04  -1.8890443205318654e-04  9.0059817342098668e+01  3.4374846016702465e+00  -6.4164321658210095e-05  8.9324764304352186e+01  8.9324824579215473e+01  -7.4092198894734268e-05  -6.0909887165958714e-05  8.9324587876090888e+01  4.1728134389809995e+01  2.8246367189232107e+01  8.3071346036250901e+01  8.9328747819895739e+01  4.0202517648454250e-04  8.9311833936838426e+01  1.8153629678115514e-04  8.9302545377563533e+01  3.6835463463773813e-04  8.9320533480865294e+01  8.9340466145586262e+01  8.9328147519499126e+01  -1.6464732241075204e-04  8.9327087488443297e+01  8.9324747211977368e+01  1.0882338788765522e+00  1.1977021155047520e+00  -1.4912853898825046e-04  -1.6550722102593753e-04  -1.1654362754852961e-05  5.7098650967484377e-01  1.5479478594262699e-01  8.9324567487751324e+01  1.7800816494138354e-03  8.9322414065465097e+01  8.9323401838348715e+01  1.5930393865643078e-03  8.9323970062554537e+01  3.4271993517263188e-03  -1.4293321808325887e-04  -1.5182153831257817e-04  -1.5701710279119002e-04  8.9324559894188738e+01  8.9324965145292595e+01  8.9324555914911556e+01  -1.1577375902811590e-04  -1.9023933027332053e-04  1.2695433217384480e-01  8.9324812552067314e+01  8.4403410515703840e+01  8.9323996768219601e+01  6.2640249617569035e-04  8.9327493581544729e+01  8.9324518422077759e+01  2.1817522768199177e-02  -1.3297949291019376e-04  8.9390457587052893e+01  8.9400803918938806e+01  8.8178576140489753e+01  1.8912105300819157e+01  8.7289013774493753e+01  9.6971680195082470e+00  -1.0931942920417088e-04  8.9324638383528367e+01  -3.1126261197874940e-05  8.9324754352999406e+01  8.9324565674694796e+01  8.9324537121376622e+01  1.7118550911172232e+00  8.9324618999203977e+01  8.9335249434089974e+01  -1.5148769450204350e-04  2.5771257901405598e-01  8.9324966472256307e+01  8.9320177094494184e+01  8.9362787208257203e+01  8.9325090091090246e+01  4.4911757147135072e+00  -1.1449094751879077e-04  2.2589366665980961e+01  8.8160437017964682e+01  8.9324392886779663e+01  3.3012843139408857e-03  8.9324122238204509e+01  6.2526683440831217e-04  8.9321891443835995e+01  8.9324542459443336e+01  8.9478895895679983e+01  8.9338420991534619e+01  8.9324488340506804e+01  -1.7108950727275378e-04  -1.6980306316315564e-04  -8.9975922525577744e-05  5.6721228259545150e+01  6.7972912202218154e+01  7.6334795345829022e+01  8.8858783548005306e+01  -1.3179864169808890e-04  -1.7098615693150054e-04  -1.4906015112353