<?xml version="1.0"?>
<VTKFile type="UnstructuredGrid"  version="0.1"  >
<UnstructuredGrid>
<Piece  NumberOfPoints="2446" NumberOfCells="4585">
<Points>
<DataArray  type="Float64"  NumberOfComponents="3"  format="ascii">0 0.41 0  0 0 0  2.2 0 0  2.2 0.41 0  0.2404508497187474 0.2293892626146237 0  0.25 0.2 0  0.2404508497187474 0.1706107373853764 0  0.2154508497187474 0.1524471741852423 0  0.1845491502812526 0.1524471741852423 0  0.1595491502812526 0.1706107373853764 0  0.15 0.2 0  0.1595491502812526 0.2293892626146237 0  0.1845491502812527 0.2475528258147577 0  0.2154508497187474 0.2475528258147577 0  1.1 0 0  1.1 0.41 0  0 0.205 0  0.55 0 0  0.55 0.41 0  0.275 0 0  0.275 0.41 0  1.65 0.41 0  1.65 0 0  0.8250000000000001 0.41 0  0.8250000000000001 0 0  1.375 0 0  1.375 0.41 0  1.925 0 0  1.925 0.41 0  1.5125 0.205 0  1.7875 0.205 0  0.6875 0.205 0  0.9625000000000001 0.205 0  1.2375 0.205 0  2.2 0.205 0  0.4687002074688797 0.2068568464730291 0  1.99375 0.2152743902439024 0  2.0625 0 0  2.0625 0.41 0  2.2 0.3075 0  0.4125 0 0  0.4125 0.41 0  1.7875 0.41 0  1.375 0.1486128048780488 0  1.5125 0 0  1.7875 0 0  1.5125 0.41 0  0.8250000000000001 0.2613871951219511 0  0.9625000000000001 0.41 0  0.9625000000000001 0 0  0.6875 0.41 0  0.6875 0 0  0.1375 0 0  0.1375 0.41 0  1.2375 0 0  1.1 0.1486128048780487 0  1.2375 0.41 0  1.65 0.1486128048780487 0  1.126715909090909 0.2793064024390244 0  1.676715909090909 0.2793064024390244 0  0.8517159090909092 0.1306935975609756 0  1.348284090909091 0.2793064024390244 0  0.34375 0.3032389320646208 0  1.894702181800738 0.1282910975492754 0  2.092797818199262 0.1282910975492754 0  1.85625 0.3075 0  0.61875 0.3075 0  0.61875 0.1025 0  0.3648540804333487 0.1240075933101478 0  0 0.3075 0  0 0.1025 0  2.099172119769978 0.25625 0  0.48125 0.09238439620688085 0  0.5781001037344399 0.2059284232365146 0  0.48125 0.3196743479159776 0  0.7265881057911006 0.3055240343720796 0  1.99375 0.08395950269330846 0  1.459960956013612 0.3075 0  1.569025960719943 0.2986889805672169 0  0.75625 0.08213100772579164 0  1.03125 0.3278689922742084 0  0.923871252904788 0.3078247185783941 0  1.959375 0.3126371951219512 0  1.749222215368287 0.1025 0  1.275777784631713 0.1025 0  2.2 0.1025 0  1.225938124459196 0.3075 0  1.550777784631713 0.1025 0  1.000777784631713 0.1025 0  1.44375 0.07430640243902442 0  1.16875 0.07430640243902437 0  1.899250267340833 0.2229966846119207 0  0.1020898364287272 0.3140258291809757 0  1.766482954545455 0.2934032012195123 0  0.3405058858996321 0.2119987970531874 0  0.7710785630958338 0.1710968191298857 0  1.046078563095834 0.2389031808701144 0  0.2 0.3400647632937836 0  1.421109702350723 0.2261157654379721 0  0.2800464974185557 0.08982544815605742 0  0.098916018031319 0.09171660955420841 0  2.13125 0 0  2.118919042110979 0.3422084711244843 0  1.30625 0.41 0  0.89375 0 0  1.597888256393107 0.2173787389261347 0  0.20625 0 0  1.829299675393195 0.07400700849299596 0  1.71875 0.41 0  1.16875 0.41 0  2.038220665644273 0.332420740103091 0  0.34375 0 0  0.417496017710808 0.2696595573092803 0  0.2 0.07687845740457822 0  0.9295982307099278 0.1343158415898188 0  0.07390688010811153 0.1697064032433452 0  0.5238366813727013 0.2578302467013575 0  0.05452951551825875 0.25625 0  0.5229630068078351 0.1548816096928243 0  1.452769549894695 0.1548122580621249 0  1.369219062229598 0.07430640243902442 0  1.30625 0 0  0.8504409521244898 0.3356935975609756 0  0.8821881244591965 0.205 0  1.720943423819132 0.1714577452753128 0  1.157188124459196 0.205 0  1.094219062229598 0.07430640243902437 0  1.03125 0 0  1.304056576180868 0.1714577452753128 0  1.67579304192913 0.07430640243902437 0  0.2751941921308361 0.3346083473122598 0  1.209670467133757 0.1362100266964769 0  1.025335513626278 0.1700681449722324 0  0.7562500000000001 0.41 0  1.58125 0 0  0.7567170593862014 0.2409196493502535 0  0.6926714215682891 0.1272249611432207 0  0.4139715849905988 0.3397932387114203 0  0.9840787304190477 0.2717749043358119 0  0.06875000000000001 0.41 0  0 0.35875 0  0.9281250000000001 0.06276726142697993 0  0.5507396469029935 0.3219409231578227 0  0.5504468037989405 0.09136885600634273 0  1.58125 0.41 0  1.631724228912893 0.3381867502687533 0  1.825608881788174 0.14499488549201 0  1.85625 0 0  1.44375 0 0  1.44375 0.41 0  1.85625 0.41 0  2.13125 0.41 0  0.7562500000000001 0 0  0.89375 0.41 0  0.4812500000000001 0 0  0.34375 0.41 0  0.4812500000000001 0.41 0  0.20625 0.41 0  0.06875000000000001 0 0  1.16875 0 0  0.61875 0 0  0.61875 0.41 0  1.03125 0.41 0  1.71875 0 0  1.99375 0 0  1.99375 0.41 0  1.340625 0.3489494290853124 0  1.134375 0.3489494290853123 0  1.700180620188976 0.3438659752031281 0  2.135782184673599 0.07126652247502523 0  1.668441847249787 0.2129203728327609 0  1.295782514339747 0.2378437748815763 0  0.8233075729931248 0.06842334294821524 0  1.409375 0.3520314716057996 0  0.403505597322782 0.182067236678212 0  0.378125 0.05794951541303489 0  0.3043468223249023 0.1518321115979534 0  2.129248544730567 0.1906135162504124 0  2.060771381434487 0.1989445750470348 0  2.013252586573865 0.1496169464686054 0  1.942766402200229 0.1734448904596831 0  1.895522487186454 0.06076163953489683 0  2.069553871656643 0.06605731020975725 0  1.274680914880868 0.3520219391081363 0  1.614713220494657 0.09473434380863296 0  0.7899021319497519 0.3149123934144827 0  0.69518737419149 0.0634051089053758 0  0.2971740475496061 0.2592172353407536 0  1.72990325744076 0.2380068107952482 0  1.356580098625191 0.2120393231351682 0  2.034370752044885 0.2668681600792073 0  1.51768709249349 0.3426260931494756 0  1.561883724969884 0.1650446847858835 0  1.197344062229598 0.2523725417393646 0  1.804085235518364 0.3468178408964637 0  1.817887819205233 0.2589243285818559 0  1.905897727272727 0.3485060975609756 0  0.6719798073392919 0.2688965171178177 0  0 0.05125 0  0.653125 0.35875 0  0.6396896119294488 0.1627615407790282 0  0.4274150154087412 0.1242548552168279 0  1.192836486056382 0.3562350748565544 0  0.8279124365364005 0.183856489168822 0  1.097485222388854 0.2083571153401724 0  1.28257088594801 0.2944411014911587 0  1.474860187679412 0.2504218616229368 0  1.406767003493824 0.2829282258560709 0  0.446875 0.04619219810344041 0  0.515625 0.04585361801037557 0  0.592043440706648 0.05125 0  1.845656689180403 0.1998310418452388 0  2.144958525570388 0.2909790873294231 0  0.6171090763650112 0.2492366900333857 0  2.2 0.15375 0  0.5145586920831158 0.3648371739579888 0  1.57794966442982 0.3540357145964566 0  0.721875 0.3633107922168974 0  0.0496154796471391 0.333125 0  0.5843750000000001 0.3662560860076676 0  0.5810878747760798 0.1474002776121195 0  1.508991196088596 0.1421783375065625 0  0.8840670607017558 0.2640994375393898 0  0.09776612425612034 0.2204896805326566 0  1.50436820029908 0.06143401634903343 0  1.223857000523521 0.0823554862453532 0  1.153316824384777 0.1289850171317837 0  2.148922302309752 0.1258841779285271 0  0.309375 0.04312325590431198 0  1.621993280276081 0.2841214267927899 0  1.550118654119087 0.2461998729100966 0  1.327182649291491 0.1216967252533594 0  1.051977450479407 0.1221382572915816 0  1.753125 0.04556020050186112 0  1.271875 0.04556020050186116 0  0.9816084133102366 0.05126138213476004 0  1.039051841454368 0.0572224914831029 0  0.9719230514536006 0.3480477870845102 0  1.94956388244759 0.1180512551534177 0  1.949997712993411 0.04965831614304109 0  1.771961817615021 0.1530278789497521 0  1.909246823951428 0.2812757146784527 0  0.2459536687882397 0.04668633953831142 0  1.948575539857022 0.2445328248721197 0  1.697271520964565 0.1233917627620729 0  0.7964897648514618 0.1211426571931604 0  1.065625 0.3689344961371042 0  1.085849084308977 0.3170853572226867 0  0.4702981435440001 0.260434880697798 0  1.577403511714593 0.05463601888079143 0  0.05622663515370135 0.05493816910862376 0  0.3267207591099919 0.3566194660323104 0  0.9003051618565143 0.3564049499960621 0  1.751571320346033 0.3651102912045228 0  0.1583785085108421 0.2994699345738728 0  0.1455283439499995 0.3542795598723423 0  2.2 0.35875 0  0.2347662494194072 0.298325008655211 0  0.1527284455616188 0.1065771775690181 0  0.1382139529076665 0.05427454456341477 0  0.8749341636311069 0.05110114999892954 0  0.643661668713109 0.05693499781019222 0  1.466879772203159 0.3611261772912453 0  1.990280163552011 0.3564754268533217 0  1.17471064520912 0.2990917256188288 0  0.5202693090594349 0.206382495511728 0  0 0.25625 0  2.2 0.25625 0  2.2 0.05125 0  0 0.15375 0  1.853978576207987 0.35875 0  0.9787513713939683 0.1487523696999336 0  0.240625 0.3722153812029779 0  1.515638456102889 0.2882700110184686 0  0.09048297387599738 0.3637717362208066 0  2.150453692751374 0.2387066338105111 0  1.323782677156475 0.04897634338873398 0  0.8074131292871642 0.3624701995505916 0  1.409375 0.03715320121951221 0  1.406484531114799 0.1087852750766809 0  1.134375 0.03715320121951218 0  1.627401732573545 0.04552157221025036 0  0.1170173172005315 0.1427610859166811 0  2.045405893604797 0.1105340662939892 0  1.255408269734577 0.1577307500159216 0  2.028125 0.03707597992059326 0  0.4743610090857199 0.1421513964721819 0  0.9354010469015898 0.250631300585664 0  0.04420832937638274 0.128125 0  0.8922386349349938 0.0992956419364831 0  0.1197849154434487 0.2663398672460083 0  1.248258025468107 0.2565907092181813 0  0.3746885856929528 0.370723531618974 0  1.203125 0.0366132337404304 0  0.5724622277005015 0.2751253816079333 0  0.3365425205162783 0.08395777655057959 0  2.072662025974815 0.2975086504196739 0  0.4581080832182547 0.3648371739579888 0  0.3874522734668214 0.2295447548840689 0  0.7827853612484443 0.04106550386289586 0  1.887722846421017 0.1760882698830035 0  1.472640588990488 0.1118278026240017 0  1.865937103925594 0.2604137786483804 0  1.463913572748262 0.2030442564990043 0  1.376426316059077 0.3186741374914345 0  0.6641993820150034 0.3141688596240831 0  0.2943117490824315 0.2130987422685822 0  0.3478153998082709 0.1666571081082676 0  0.3427990510599805 0.2575950027870776 0  0.7997118993855807 0.2216171933356366 0  
[...]
<PointData  Scalars="f_9-2"> 
<DataArray  type="Float64"  Name="f_9-2"  format="ascii">6.4293515120968237e-09  1.6888738796532796e-08  1.3609899510641191e-11  1.3867477981769579e-11  1.0693709932494165e-06  1.5667546503134888e-06  1.1292504076011612e-06  3.4174191436770510e-07  8.6389784558756102e-08  5.0799283737716911e-08  3.7800792624815344e-08  4.8127404858284186e-08  7.7448723188532748e-08  2.9371505221401813e-07  9.6164694338694896e-07  8.1277080574022882e-07  1.6006272955649658e-08  3.4477177302373276e-07  2.5646938646690438e-07  1.6785317796274662e-07  9.2177313284399242e-08  9.5844674718487298e-08  8.8028630894956412e-08  4.9886306682681497e-07  9.4429022493965548e-07  6.0025213057648119e-07  5.8148114490306159e-07  2.3085538948502529e-09  2.2382944491754857e-09  1.8645407566637690e-06  3.1673714488807146e-07  1.6982292435127167e-06  1.8085115670406864e-06  2.5353671685142335e-06  5.8931817847983854e-10  1.6963792625335180e-06  2.1979301856531477e-08  1.9793921103074781e-10  1.7621348970612342e-10  2.4455345779930284e-10  2.3424600712086691e-07  1.2839988676775444e-07  1.7620378137564040e-08  2.1895418965753347e-06  2.9106024687833130e-07  1.6630927719160309e-08  3.0219783837844218e-07  2.2590932735036968e-06  7.9178048032935395e-07  8.3728624457613559e-07  4.4854469542835330e-07  6.0999220215400284e-07  8.4267619037194254e-08  3.5431067602596794e-08  9.0795038798049871e-07  2.2451690909335633e-06  7.3081948882178726e-07  8.4389430819802707e-07  2.3449371544776674e-06  6.1967514115732335e-07  2.5646941545035945e-06  1.9047903180655076e-06  4.1994212199450335e-07  6.0208630094893685e-08  2.6684181468818372e-09  7.3914245873300099e-08  1.1013664496495389e-06  1.0389926398845989e-06  7.3158174727982737e-07  9.3868721083620024e-09  1.5594032165551406e-08  3.0580333460921021e-09  9.2345187975507552e-07  1.9366572849665642e-06  3.0442921346903532e-07  2.0398661845179495e-06  7.0264598936801951e-09  1.3045776415438414e-06  9.5735628051265774e-07  1.0223692583484061e-06  1.3967759936716541e-06  8.8707931776588876e-07  1.6148828982111921e-08  2.2891956610421801e-07  1.7997070693142882e-06  2.5924980746357301e-10  1.8590811321462234e-06  1.0064707280802220e-06  2.0021467761811737e-06  1.0772866479573132e-06  1.3352713617540678e-06  8.5111314339208149e-08  5.3260841722925741e-08  2.4989594040062919e-07  2.0279282618514443e-06  1.7203378269165266e-06  2.2797309425428958e-06  1.2539079373720830e-07  2.1773666082090999e-06  2.4581719947777525e-07  7.5585814393236501e-08  4.2512043371288574e-11  4.9312518587311508e-10  6.7224503931448248e-07  8.8801397277758692e-07  1.3109124306566974e-06  1.3561972634475673e-07  5.7236787803390964e-08  4.5822147668468299e-08  7.7647057543445398e-07  2.8519822668162289e-09  1.9414522059031764e-07  1.1108173596481333e-06  1.8361431742928406e-07  2.5613001686260155e-06  1.7913971530805950e-08  7.0652481032407209e-07  1.4137884954874002e-08  2.2098296176616883e-06  2.0624325427322177e-06  1.2629144008269857e-06  7.5243269819745557e-07  7.1237810966707312e-07  2.2579214881865281e-06  5.4001524954751581e-07  2.5827275067355053e-06  1.2046329191666547e-06  8.8513769211826299e-07  2.4352902452008581e-06  2.8313390282432123e-07  1.6632030015904618e-07  1.9582749292920709e-06  2.5306661511069848e-06  4.3695421778396934e-07  1.7394460256941758e-07  2.2799705710731839e-06  8.9690854247415762e-07  2.2364558801484730e-07  1.4128717982183484e-06  1.1740167408087519e-08  6.8235187128872200e-09  1.5104256743147534e-06  3.5290492909936404e-07  1.1408801085293446e-06  1.7914740417419687e-07  3.9601807594411200e-07  1.6464725899717453e-07  6.3926492575482568e-09  4.2683736305328652e-07  4.5398062052986741e-07  7.0911072044545685e-09  4.3443418059089947e-11  8.3388966299578702e-07  6.5450506461494602e-07  2.9093537110314206e-07  1.0985394303463155e-07  1.6906199050176297e-07  6.6213530691732714e-08  3.1981198088584781e-08  9.8568326438227148e-07  4.2270682566476858e-07  3.8152816697334162e-07  8.3017186530196207e-07  4.0403534829450065e-08  6.3575791971798251e-10  7.0589163671644141e-10  9.7818597846539735e-07  1.2381885498340832e-06  2.0545660745882683e-07  3.9228286793918774e-10  8.7353392489792005e-07  2.5454719547561308e-06  1.5395973867988790e-06  8.7291247816901398e-07  2.0293019570769076e-06  2.6124865827363663e-07  1.2068523678285314e-06  2.0517033507221813e-09  7.2492828663041651e-09  1.2999905738513554e-08  4.4195558827929607e-08  1.7570051009171607e-08  1.1898606462071908e-09  1.0347038646588339e-06  6.2804670026768905e-07  1.4669531161937546e-06  6.0130274203915670e-07  1.0196699870523765e-06  5.1907306416153411e-07  2.4811961610215727e-06  8.8099325295775360e-09  7.1187329820445515e-07  1.5062963429428203e-06  2.6412433233162139e-06  6.4148805147572206e-08  1.9669030773025270e-07  1.5853168639953466e-08  2.3677389089704811e-06  1.5533680821234017e-08  6.8639875343165469e-07  1.8156698108627380e-06  1.0813921768385920e-06  1.0961344848121609e-06  2.5597030362609173e-06  2.7111794226568292e-06  1.9162895709715758e-06  1.8297591073349533e-06  1.6828050136651009e-06  3.1600490582544248e-07  4.5033791484183079e-07  4.9516584627268227e-07  1.6652590097949887e-07  8.7613076442208277e-10  2.0344956064342260e-06  4.8676062628487782e-10  2.0459386302668177e-07  4.2234766474988940e-07  7.5552356105126427e-07  1.0362930156507144e-08  3.5394698264433222e-07  2.1453905637175716e-06  1.6856017922320133e-06  1.4792381441159711e-06  1.9758315745900110e-08  7.0062560860349747e-07  1.5323621682007313e-06  1.7596646082043789e-06  8.9271891223387765e-10  1.9677135275354543e-07  8.3914916452002580e-07  1.4701969520964466e-06  1.9623114121719029e-06  2.0682303240827804e-06  6.7016823296461509e-08  1.1051425169069195e-06  1.1310047651456463e-06  1.0843833151187691e-06  9.8118907242564018e-07  2.4933044593360350e-08  5.4987490519092879e-09  3.0631865511387664e-07  5.2118199984142056e-08  1.7818782471917542e-07  3.9657238680939255e-08  4.7598073534084926e-07  1.8343471572998294e-06  1.0204692837151576e-06  1.6930285209100099e-06  9.5451202217443385e-07  4.0979029136449756e-07  2.4452199635021249e-08  1.4631717346961118e-07  6.8533567791599420e-07  7.2537361277529930e-08  1.2494940237718845e-07  6.5951268266242849e-08  6.1966829214264367e-11  1.7212583010665697e-07  1.4148478768089336e-07  1.1128186388600134e-07  1.3765031547687810e-06  4.9860603615557852e-07  6.6832946258084804e-07  3.3120154759978649e-09  2.0947253102564140e-06  1.3714729898393517e-06  1.3324974374443102e-08  4.7923212628099885e-10  6.6736388381583977e-11  1.6779293411590880e-08  2.5064170526092233e-08  2.5020288362779034e-06  9.9014397932311748e-08  1.3160769252859787e-06  2.0961698995525942e-08  1.2704471369208456e-09  1.0348835660489392e-06  5.9524147574184165e-07  7.1408967764722328e-07  1.6867304771940506e-06  1.0607977654902664e-06  2.3442039774902598e-07  6.0914816877062946e-08  4.8693946536088373e-09  2.2883063808119552e-06  9.7089466157967656e-10  2.0237990406241789e-06  1.3354695545552791e-06  1.8455508579339694e-08  2.3197340395237598e-06  6.4212252129348450e-08  2.5335064240695596e-06  1.3653534757971643e-07  1.0979687201642623e-06  8.3828973964853144e-07  3.0197457200995185e-07  3.1200652189328276e-09  1.6674305345765831e-07  1.9919618035735990e-06  1.0371897542272025e-06  9.4587893872495256e-08  1.5191323675783551e-06  1.1037058205384957e-07  2.1131121072511776e-06  1.2900549592054185e-06  1.5756141773579964e-06  1.7854784238879921e-06  1.5660909695030799e-06  1.3738332239850640e-06  2.4593641068941027e-06  4.2237162793695091e-07  3.3368567172120444e-07  2.2607916714599285e-10  1.1837573605820729e-06  9.9670523158685338e-07  1.8599654437364309e-06  1.8140869057710128e-06  2.4887948708148258e-06  2.3737612166999287e-06  5.6003690952716418e-07  3.6430994377457278e-10  1.0817271172349205e-06  2.1912851249681637e-06  2.1702811901549464e-06  1.3551565536705199e-07  1.5851232650023995e-08  1.9062428011665208e-08  2.7044399786369345e-10  8.8456076662489696e-11  5.7265682075892267e-10  5.2362564545617441e-08  7.9152054197488298e-07  1.3249449884294114e-07  1.6791641081060369e-07  9.1712710129089395e-09  1.1235254820880047e-07  2.1653643016464259e-06  2.3038335731338405e-06  3.5701592072707606e-07  1.1053548993695234e-06  2.3774158726859748e-07  5.6980710477202667e-07  5.9780716116606327e-08  1.0636739494104273e-07  8.2351557145406639e-07  9.8740710909862123e-07  6.7562247730799087e-11  6.6720811954727481e-11  7.4198959013386011e-09  6.9147243414587922e-07  6.3840768306877338e-07  2.1457673975864679e-06  2.5473681657106945e-06  1.0135077088904223e-06  3.8111217389771339e-08  5.2693198248715486e-08  2.2725037854393337e-07  4.4715150326820677e-09  1.9465111539597993e-06  1.7106432630983332e-07  1.1084394309721286e-08  9.8396215018419001e-07  2.2189044945405198e-07  1.6520629145980072e-07  1.9168440951111197e-06  4.3275986582198190e-07  5.1550269748684777e-08  6.4626067637275669e-09  7.3374916582071977e-07  1.6129966449627080e-06  9.2373092900655350e-07  3.6810501623343261e-09  5.8517202830842131e-07  1.3873852963064331e-07  2.6297272626349910e-06  2.1216409153630561e-06  1.1741659257682588e-06  2.3813750922376046e-06  5.0830890645462067e-07  4.5361885237518205e-07  1.6631989203277515e-06  1.3882628825323182e-06  2.2744634738674633e-06  2.7047530933019430e-06  2.3106533228103222e-06  2.3570520164802140e-08  1.0049678244153593e-09  1.4964165748920271e-06  2.4644739682821526e-09  1.2933578938796410e-06  4.0258216804375228e-09  1.7079704584328292e-08  3.9162964155943980e-09  1.8688288235250481e-08  1.1857629973464666e-06  2.5510040274439021e-07  1.3594046476151004e-07  5.7087445677699285e-07  1.9904813325344219e-08  7.7404832629446316e-07  3.0202133070003902e-07  7.2753113649774862e-09  8.8281652010264460e-10  2.1210906699997706e-06  1.3629082737406265e-06  1.2904667341077852e-06  2.0417492976016433e-08  4.3079593345685599e-07  1.5119525029050756e-07  1.0917939777957212e-07  7.2515467751105349e-07  7.9066429647526011e-07  1.0674572566216327e-06  1.9840988555980133e-06  1.6676155639870876e-08  2.5829660622620191e-06  2.0921247798754340e-06  2.9319742717229617e-09  1.7174452491612630e-06  1.1185951632001002e-07  6.9994175832593283e-08  1.6585844703645980e-06  1.0148486060721142e-07  2.2392914527456954e-06  1.9509466597699265e-06  1.8075907492798288e-06  2.1088104082506693e-06  6.1139078567357649e-07  5.2054795587196751e-07  1.1413309297475388e-06  5.8514262391441055e-07  1.1232570826601855e-08  3.7403328488702865e-07  4.6245060113303417e-07  2.5749551210376329e-06  3.9119713057945463e-07  2.1599029568075836e-06  1.7798742213182858e-06  8.2363645228724605e-07  1.6791310124447658e-06  6.8350141709156940e-07  2.2978437667956722e-06  2.4213446613350434e-08  3.7987917863346199e-08  2.1292580469297633e-07  1.6308646950767220e-06  1.9726065128062380e-06  2.9896758612300333e-08  1.5116790021061157e-07  6.6816523412734897e-07  4.1698807889685494e-07  1.2551706282812351e-06  1.4151935606795074e-07  5.3274130318051554e-07  1.6028672055160819e-08  1.1090998300722844e-06  1.9692772218265138e-07  1.3311869421435712e-06  3.7914655316038023e-07  1.1727020810736870e-06  1.0460838805487794e-08  1.2303945652140655e-06  6.5012292917132485e-09  1.2385646054489355e-08  1.5359509180973881e-06  1.5259402581162258e-06  1.7564197357664792e-09  2.5395961329251176e-09  1.0658114662074821e-09  1.3581820867935019e-07  6.2729018804663646e-07  2.3384148168397517e-06  2.4694808626758032e-06  2.2357688333413015e-06  5.4120564349095018e-07  1.1601048347800497e-06  1.2050763052716333e-06  1.0038263623691458e-06  1.0890848725252225e-06  9.2520022650629099e-07  1.1440601882533937e-06  3.7642860227119227e-10  1.1224410246815423e-09  9.2502801730134661e-07  3.8618217985833810e-08  1.9234599533953407e-10  2.4285444768786278e-06  2.5788380089748722e-06  1.7250411959275439e-06  9.7452438695352261e-08  2.5086376694700646e-07  1.4959167376901724e-06  2.1912663715410214e-07  1.4342092577230594e-07  2.2720791799120802e-06  1.8073062664858212e-06  1.0947818661504015e-06  2.2100258594610514e-06  9.3370888014742309e-07  7.9738627251191458e-07  8.1438684109677129e-07  6.2320151279593314e-07  7.5392641740432610e-07  1.8254636279423830e-06  2.2545142967306273e-06  1.9077381376819846e-09  7.4825177278208941e-07  4.5563560630011628e-07  2.6654401690328447e-07  2.0722913767183361e-06  1.2680851354398559e-06  2.5262624224268958e-07  2.1070658079444239e-07  2.6548898768070877e-07  4.5304377676767451e-07  5.1530855099220683e-07  6.5591861276909798e-07  1.3596905104549649e-07  1.0609868345891211e-06  1.5000677337084865e-06  8.9872729285547212e-07  2.0161297532220496e-06  1.4664377841799569e-06  1.2653689784563486e-06  6.4240976546913985e-08  2.1338682332100646e-08  1.2046383761237981e-08  2.5760270561177096e-08  6.9857836037422406e-07  9.1689715359124425e-07  1.0779542638561268e-06  3.3487553734054928e-07  6.8240125313516826e-07  9.2710237133711224e-07  2.0718905952365123e-11  8.6144555603977852e-11  9.8411760584903136e-07  5.2056567830829961e-07  3.7828206057925029e-07  2.9508882846468329e-08  8.2631913131228154e-07  2.8032370479190541e-08  4.5178264125234576e-07  5.1623819398039202e-07  7.2990394371480359e-07  2.2393212372233840e-11  8.6274266055142212e-07  1.1808395113949601e-07  2.6065659019934828e-07  1.4359432335907446e-07  5.4987054584850719e-08  8.0372025992129517e-08  1.5290082984711896e-07  2.1031462069518154e-08  5.0250070088598477e-07  9.0840377832186956e-07  1.8041895007675122e-07  3.1792043718578553e-07  2.0624516559917863e-07  3.7255494190977539e-07  3.1723607998401810e-07  4.1652775426082949e-07  8.5531925041529024e-07  9.5121608838720397e-07  1.2481593216167814e-07  1.1957687816538037e-09  8.3547453407372388e-07  3.5209945652827238e-10  1.2038438456990765e-09  8.3947417570662516e-08  9.2216716700064039e-09  1.3326819892588238e-06  1.7848901508359736e-06  2.0865805332540070e-06  4.3041555626727022e-07  2.4007908824269280e-06  2.1404112521844372e-06  1.4810556420577957e-06  9.3436501841928486e-07  1.0965553536069001e-06  5.5633345092189642e-09  8.3428474336122033e-08  9.8695431876253583e-07  5.9063973978497535e-07  6.0702738339431511e-07  4.1380726624497464e-08  6.5808697382357507e-07  2.0304752543628920e-07  2.2122781073937563e-06  1.0773702161568189e-07  8.0749520904812670e-07  2.5663192868582478e-06  2.7660144410166325e-08  4.3864772920899606e-07  1.1931597057089919e-06  2.0735771314220224e-06  8.6900380400715605e-07  1.4892781242786846e-08  2.2459990180852542e-07  2.0889566033674425e-07  4.5516656578655321e-07  4.6682444269895114e-10  1.7593001763893429e-09  1.5869667578636623e-06  5.9138948995525544e-07  2.4063916192731170e-06  2.7797545147797736e-08  1.3156984947281978e-06  6.1441788447572157e-08  5.9359106036690486e-08  3.1822181233008401e-08  1.2958119579004493e-09  1.5446949802977039e-07  1.8913120198793465e-06  2.4022986992989178e-06  1.6478204630573100e-06  5.4479210016974729e-09  2.5710766952264518e-08  2.5616299857177249e-06  6.2773520360374385e-08  4.0355650277682684e-07  1.6621704914284687e-07  1.0743402405174331e-08  7.3498018400182417e-10  7.4294093323182810e-07  2.2032008514196127e-06  1.2108143854235740e-06  2.1479057262021461e-06  8.6505855136932328e-07  7.0504705217282249e-07  3.8709903072021617e-07  8.4636470561987397e-08  5.5607960077271818e-09  1.6921219243995867e-06  2.7597010759685464e-07  1.3068794285772987e-06  5.3174470380025098e-07  1.0760616360448419e-07  1.7364885274694274e-06  2.2697071896056695e-07  1.7500534826016784e-06  1.7426615315333410e-06  1.9897391728895948e-07  1.5696246139984037e-06  2.4734383740204105e-06  6.6134981841140602e-07  2.1932605058599066e-06  8.9789776094094706e-09  1.9365348660882130e-06  1.2332437395082217e-08  2.3180775607483466e-06  2.6208220322863499e-06  2.5914932675492715e-07  2.4301860704665949e-07  1.2666847139882571e-06  1.6673242576414321e-06  3.7277417057203358e-08  3.9275219086484300e-07  4.3697239767228882e-07  2.6209730838061275e-06  2.4179513863927315e-06  2.6846102927268429e-06  8.8132420514293741e-07  9.2484231071799349e-07  2.2157421209540537e-07  1.2932591217842619e-07  4.0806057761599388e-09  4.1490821039017452e-07  1.7050895861486071e-09  1.6387158006709951e-08  1.7980083625355276e-08  1.4937942403131229e-06  3.3438403127175126e-08  1.3618147138731067e-06  4.4837890208846361e-08  2.4471289358663568e-07  5.9700730454172160e-07  1.4974897482366737e-07  8.9588292912077661e-08  5.5043683375218405e-07  1.5880341269383672e-08  1.4256586202497966e-06  7.1941937831057367e-07  1.8689740871252796e-07  1.4737505055203212e-06  1.3348309441677532e-08  7.0109256002571799e-07  1.4463174738636006e-08  6.8363113660809245e-07  2.1069381504167999e-07  7.0055406208867501e-10  1.9100343530163739e-06  2.6763937933959714e-08  2.6379466062185015e-06  8.2231006746324638e-07  7.3163965474535476e-08  5.5411191616965449e-10  2.2269371765397184e-06  8.2743422178556245e-07  2.6163646190142676e-06  2.6401323297175985e-06  2.6268764523478162e-06  8.0848066415993202e-07  1.8028763770833018e-06  1.7088527098138521e-10  1.9057333139839644e-06  5.1445539686949775e-09  1.3261305783533435e-06  4.9879768340702161e-08  9.2197661428092586e-08  7.8529559214415449e-08  1.0047448492788321e-06  2.3304216681023682e-06  2.0424369037054089e-06  1.5725631742046347e-06  1.8864439392646790e-06  5.7152595273696045e-07  3.7499106679259726e-08  1.0347780804458992e-06  7.4048283943776478e-07  1.1513120131776948e-06  2.0415527178410579e-06  2.5261805055812539e-06  1.8388767628008219e-06  1.9443944200394731e-06  1.0024473372132270e-06  1.0534165524129453e-06  1.1652501740710178e-07  1.0717023459103914e-06  2.3152743321004151e-06  1.3229066511255832e-06  1.3447107346045187e-06  3.7203741660556047e-10  1.3330080096967011e-07  2.1303946829062261e-06  2.3904034802376774e-06  5.6715011066684577e-07  7.7438373184273924e-07  5.1260059493439943e-07  1.3542840981955434e-07  1.8694446178049996e-06  1.5742688717302821e-06  6.1668691370337968e-07  1.6964813836848948e-06  9.9005408244357909e-10  9.2915889780591703e-07  2.5045309347169800e-06  6.3243996474525081e-07  1.8784259727209623e-06  5.8358982695993816e-07  5.1165907459421393e-07  1.4669920671393319e-06  1.2264323474038816e-06  5.4501032026132960e-07  1.3722920011387829e-07  3.1885363301116802e-08  6.2594425746142289e-10  1.6090448334115235e-09  4.1453848198678629e-10  2.2635030034360634e-07  1.1758946951287705e-07  7.9184901301639310e-09  2.5199787411663296e-06  9.0777959492837077e-07  4.6368101780215671e-08  3.0706912272173646e-08  9.1206155051834275e-07  1.4851270973938795e-06  1.8319489249346985e-06  1.5313552032783673e-06  2.3424434412083965e-07  2.4985071562000620e-06  1.2693683471342250e-06  1.6904359003792674e-06  1.3479108569154286e-06  1.9384585342749485e-06  1.7395937306848746e-07  2.0057418014243804e-07  1.3902622425119699e-06  5.1368351644667998e-08  1.7338254664755953e-07  3.0406699248152770e-08  4.6094118246554126e-08  1.7185317231946222e-07  1.1777156331470871e-06  1.1248899797340240e-07  1.2626163126597708e-06  5.4992695183661284e-10  1.6451106778412390e-08  1.5580805963099744e-08  6.7161904512262041e-07  3.5283279950201510e-07  1.1060897538105525e-07  3.4957995339114037e-08  1.0532619801950343e-08  1.7165397631498813e-06  7.8028905879345487e-09  2.4670002041206018e-08  1.0443635469082280e-07  1.1971604493385736e-07  3.8080948863224814e-08  4.1681807324302241e-09  5.7308389278341260e-07  1.6946474905183013e-06  1.2190689197316898e-06  1.3880761841253881e-06  1.2970562456762411e-06  1.4144210967061005e-06  1.1216032350559152e-06  2.3244740776312905e-07  2.7792116575767482e-07  6.1427206271601410e-08  1.0370567438450369e-08  3.2133804470228798e-09  2.4923296211228286e-07  1.6993588251649972e-06  1.4171941629150708e-07  2.2567869403414142e-06  2.8344128028945767e-07  8.3953141106589576e-07  1.4751284620427925e-06  2.4711365817011116e-06  3.5611025779443210e-07  9.2474707981895053e-08  1.8942336121354323e-07  1.6422966812695634e-06  1.6119882167519757e-06  8.2743389766006381e-07  7.2765466863014871e-07  1.785936785497183