<?xml version="1.0"?>
<VTKFile type="UnstructuredGrid"  version="0.1"  >
<UnstructuredGrid>
<Piece  NumberOfPoints="2446" NumberOfCells="4585">
<Points>
<DataArray  type="Float64"  NumberOfComponents="3"  format="ascii">0 0.41 0  0 0 0  2.2 0 0  2.2 0.41 0  0.2404508497187474 0.2293892626146237 0  0.25 0.2 0  0.2404508497187474 0.1706107373853764 0  0.2154508497187474 0.1524471741852423 0  0.1845491502812526 0.1524471741852423 0  0.1595491502812526 0.1706107373853764 0  0.15 0.2 0  0.1595491502812526 0.2293892626146237 0  0.1845491502812527 0.2475528258147577 0  0.2154508497187474 0.2475528258147577 0  1.1 0 0  1.1 0.41 0  0 0.205 0  0.55 0 0  0.55 0.41 0  0.275 0 0  0.275 0.41 0  1.65 0.41 0  1.65 0 0  0.8250000000000001 0.41 0  0.8250000000000001 0 0  1.375 0 0  1.375 0.41 0  1.925 0 0  1.925 0.41 0  1.5125 0.205 0  1.7875 0.205 0  0.6875 0.205 0  0.9625000000000001 0.205 0  1.2375 0.205 0  2.2 0.205 0  0.4687002074688797 0.2068568464730291 0  1.99375 0.2152743902439024 0  2.0625 0 0  2.0625 0.41 0  2.2 0.3075 0  0.4125 0 0  0.4125 0.41 0  1.7875 0.41 0  1.375 0.1486128048780488 0  1.5125 0 0  1.7875 0 0  1.5125 0.41 0  0.8250000000000001 0.2613871951219511 0  0.9625000000000001 0.41 0  0.9625000000000001 0 0  0.6875 0.41 0  0.6875 0 0  0.1375 0 0  0.1375 0.41 0  1.2375 0 0  1.1 0.1486128048780487 0  1.2375 0.41 0  1.65 0.1486128048780487 0  1.126715909090909 0.2793064024390244 0  1.676715909090909 0.2793064024390244 0  0.8517159090909092 0.1306935975609756 0  1.348284090909091 0.2793064024390244 0  0.34375 0.3032389320646208 0  1.894702181800738 0.1282910975492754 0  2.092797818199262 0.1282910975492754 0  1.85625 0.3075 0  0.61875 0.3075 0  0.61875 0.1025 0  0.3648540804333487 0.1240075933101478 0  0 0.3075 0  0 0.1025 0  2.099172119769978 0.25625 0  0.48125 0.09238439620688085 0  0.5781001037344399 0.2059284232365146 0  0.48125 0.3196743479159776 0  0.7265881057911006 0.3055240343720796 0  1.99375 0.08395950269330846 0  1.459960956013612 0.3075 0  1.569025960719943 0.2986889805672169 0  0.75625 0.08213100772579164 0  1.03125 0.3278689922742084 0  0.923871252904788 0.3078247185783941 0  1.959375 0.3126371951219512 0  1.749222215368287 0.1025 0  1.275777784631713 0.1025 0  2.2 0.1025 0  1.225938124459196 0.3075 0  1.550777784631713 0.1025 0  1.000777784631713 0.1025 0  1.44375 0.07430640243902442 0  1.16875 0.07430640243902437 0  1.899250267340833 0.2229966846119207 0  0.1020898364287272 0.3140258291809757 0  1.766482954545455 0.2934032012195123 0  0.3405058858996321 0.2119987970531874 0  0.7710785630958338 0.1710968191298857 0  1.046078563095834 0.2389031808701144 0  0.2 0.3400647632937836 0  1.421109702350723 0.2261157654379721 0  0.2800464974185557 0.08982544815605742 0  0.098916018031319 0.09171660955420841 0  2.13125 0 0  2.118919042110979 0.3422084711244843 0  1.30625 0.41 0  0.89375 0 0  1.597888256393107 0.2173787389261347 0  0.20625 0 0  1.829299675393195 0.07400700849299596 0  1.71875 0.41 0  1.16875 0.41 0  2.038220665644273 0.332420740103091 0  0.34375 0 0  0.417496017710808 0.2696595573092803 0  0.2 0.07687845740457822 0  0.9295982307099278 0.1343158415898188 0  0.07390688010811153 0.1697064032433452 0  0.5238366813727013 0.2578302467013575 0  0.05452951551825875 0.25625 0  0.5229630068078351 0.1548816096928243 0  1.452769549894695 0.1548122580621249 0  1.369219062229598 0.07430640243902442 0  1.30625 0 0  0.8504409521244898 0.3356935975609756 0  0.8821881244591965 0.205 0  1.720943423819132 0.1714577452753128 0  1.157188124459196 0.205 0  1.094219062229598 0.07430640243902437 0  1.03125 0 0  1.304056576180868 0.1714577452753128 0  1.67579304192913 0.07430640243902437 0  0.2751941921308361 0.3346083473122598 0  1.209670467133757 0.1362100266964769 0  1.025335513626278 0.1700681449722324 0  0.7562500000000001 0.41 0  1.58125 0 0  0.7567170593862014 0.2409196493502535 0  0.6926714215682891 0.1272249611432207 0  0.4139715849905988 0.3397932387114203 0  0.9840787304190477 0.2717749043358119 0  0.06875000000000001 0.41 0  0 0.35875 0  0.9281250000000001 0.06276726142697993 0  0.5507396469029935 0.3219409231578227 0  0.5504468037989405 0.09136885600634273 0  1.58125 0.41 0  1.631724228912893 0.3381867502687533 0  1.825608881788174 0.14499488549201 0  1.85625 0 0  1.44375 0 0  1.44375 0.41 0  1.85625 0.41 0  2.13125 0.41 0  0.7562500000000001 0 0  0.89375 0.41 0  0.4812500000000001 0 0  0.34375 0.41 0  0.4812500000000001 0.41 0  0.20625 0.41 0  0.06875000000000001 0 0  1.16875 0 0  0.61875 0 0  0.61875 0.41 0  1.03125 0.41 0  1.71875 0 0  1.99375 0 0  1.99375 0.41 0  1.340625 0.3489494290853124 0  1.134375 0.3489494290853123 0  1.700180620188976 0.3438659752031281 0  2.135782184673599 0.07126652247502523 0  1.668441847249787 0.2129203728327609 0  1.295782514339747 0.2378437748815763 0  0.8233075729931248 0.06842334294821524 0  1.409375 0.3520314716057996 0  0.403505597322782 0.182067236678212 0  0.378125 0.05794951541303489 0  0.3043468223249023 0.1518321115979534 0  2.129248544730567 0.1906135162504124 0  2.060771381434487 0.1989445750470348 0  2.013252586573865 0.1496169464686054 0  1.942766402200229 0.1734448904596831 0  1.895522487186454 0.06076163953489683 0  2.069553871656643 0.06605731020975725 0  1.274680914880868 0.3520219391081363 0  1.614713220494657 0.09473434380863296 0  0.7899021319497519 0.3149123934144827 0  0.69518737419149 0.0634051089053758 0  0.2971740475496061 0.2592172353407536 0  1.72990325744076 0.2380068107952482 0  1.356580098625191 0.2120393231351682 0  2.034370752044885 0.2668681600792073 0  1.51768709249349 0.3426260931494756 0  1.561883724969884 0.1650446847858835 0  1.197344062229598 0.2523725417393646 0  1.804085235518364 0.3468178408964637 0  1.817887819205233 0.2589243285818559 0  1.905897727272727 0.3485060975609756 0  0.6719798073392919 0.2688965171178177 0  0 0.05125 0  0.653125 0.35875 0  0.6396896119294488 0.1627615407790282 0  0.4274150154087412 0.1242548552168279 0  1.192836486056382 0.3562350748565544 0  0.8279124365364005 0.183856489168822 0  1.097485222388854 0.2083571153401724 0  1.28257088594801 0.2944411014911587 0  1.474860187679412 0.2504218616229368 0  1.406767003493824 0.2829282258560709 0  0.446875 0.04619219810344041 0  0.515625 0.04585361801037557 0  0.592043440706648 0.05125 0  1.845656689180403 0.1998310418452388 0  2.144958525570388 0.2909790873294231 0  0.6171090763650112 0.2492366900333857 0  2.2 0.15375 0  0.5145586920831158 0.3648371739579888 0  1.57794966442982 0.3540357145964566 0  0.721875 0.3633107922168974 0  0.0496154796471391 0.333125 0  0.5843750000000001 0.3662560860076676 0  0.5810878747760798 0.1474002776121195 0  1.508991196088596 0.1421783375065625 0  0.8840670607017558 0.2640994375393898 0  0.09776612425612034 0.2204896805326566 0  1.50436820029908 0.06143401634903343 0  1.223857000523521 0.0823554862453532 0  1.153316824384777 0.1289850171317837 0  2.148922302309752 0.1258841779285271 0  0.309375 0.04312325590431198 0  1.621993280276081 0.2841214267927899 0  1.550118654119087 0.2461998729100966 0  1.327182649291491 0.1216967252533594 0  1.051977450479407 0.1221382572915816 0  1.753125 0.04556020050186112 0  1.271875 0.04556020050186116 0  0.9816084133102366 0.05126138213476004 0  1.039051841454368 0.0572224914831029 0  0.9719230514536006 0.3480477870845102 0  1.94956388244759 0.1180512551534177 0  1.949997712993411 0.04965831614304109 0  1.771961817615021 0.1530278789497521 0  1.909246823951428 0.2812757146784527 0  0.2459536687882397 0.04668633953831142 0  1.948575539857022 0.2445328248721197 0  1.697271520964565 0.1233917627620729 0  0.7964897648514618 0.1211426571931604 0  1.065625 0.3689344961371042 0  1.085849084308977 0.3170853572226867 0  0.4702981435440001 0.260434880697798 0  1.577403511714593 0.05463601888079143 0  0.05622663515370135 0.05493816910862376 0  0.3267207591099919 0.3566194660323104 0  0.9003051618565143 0.3564049499960621 0  1.751571320346033 0.3651102912045228 0  0.1583785085108421 0.2994699345738728 0  0.1455283439499995 0.3542795598723423 0  2.2 0.35875 0  0.2347662494194072 0.298325008655211 0  0.1527284455616188 0.1065771775690181 0  0.1382139529076665 0.05427454456341477 0  0.8749341636311069 0.05110114999892954 0  0.643661668713109 0.05693499781019222 0  1.466879772203159 0.3611261772912453 0  1.990280163552011 0.3564754268533217 0  1.17471064520912 0.2990917256188288 0  0.5202693090594349 0.206382495511728 0  0 0.25625 0  2.2 0.25625 0  2.2 0.05125 0  0 0.15375 0  1.853978576207987 0.35875 0  0.9787513713939683 0.1487523696999336 0  0.240625 0.3722153812029779 0  1.515638456102889 0.2882700110184686 0  0.09048297387599738 0.3637717362208066 0  2.150453692751374 0.2387066338105111 0  1.323782677156475 0.04897634338873398 0  0.8074131292871642 0.3624701995505916 0  1.409375 0.03715320121951221 0  1.406484531114799 0.1087852750766809 0  1.134375 0.03715320121951218 0  1.627401732573545 0.04552157221025036 0  0.1170173172005315 0.1427610859166811 0  2.045405893604797 0.1105340662939892 0  1.255408269734577 0.1577307500159216 0  2.028125 0.03707597992059326 0  0.4743610090857199 0.1421513964721819 0  0.9354010469015898 0.250631300585664 0  0.04420832937638274 0.128125 0  0.8922386349349938 0.0992956419364831 0  0.1197849154434487 0.2663398672460083 0  1.248258025468107 0.2565907092181813 0  0.3746885856929528 0.370723531618974 0  1.203125 0.0366132337404304 0  0.5724622277005015 0.2751253816079333 0  0.3365425205162783 0.08395777655057959 0  2.072662025974815 0.2975086504196739 0  0.4581080832182547 0.3648371739579888 0  0.3874522734668214 0.2295447548840689 0  0.7827853612484443 0.04106550386289586 0  1.887722846421017 0.1760882698830035 0  1.472640588990488 0.1118278026240017 0  1.865937103925594 0.2604137786483804 0  1.463913572748262 0.2030442564990043 0  1.376426316059077 0.3186741374914345 0  0.6641993820150034 0.3141688596240831 0  0.2943117490824315 0.2130987422685822 0  0.3478153998082709 0.1666571081082676 0  0.3427990510599805 0.2575950027870776 0  0.7997118993855807 0.2216171933356366 0  
[...]
<PointData  Scalars="f_9-2"> 
<DataArray  type="Float64"  Name="f_9-2"  format="ascii">2.3055938552082977e-07  3.1802991434943249e-07  3.8636276596773013e-06  3.8887860304144747e-06  2.0603223253285251e-06  2.7241078107563751e-06  2.1224746160487220e-06  9.7421224812254755e-07  5.0749344820301332e-07  3.6830857489005244e-07  3.3134114627595076e-07  3.8977707172635273e-07  5.5695777483331996e-07  1.0018691849016483e-06  4.7225728686855543e-06  4.5815194134118767e-06  2.5612624823984982e-07  1.8272973259086457e-06  1.8242191646921584e-06  1.4026132386899271e-06  1.2114709613735468e-06  4.2806394719844664e-06  4.3268088410945526e-06  3.6172569304481401e-06  4.2651659955432266e-06  4.5300747831916511e-06  4.5246828764060966e-06  4.0965108678942942e-06  4.0626141832867683e-06  4.6715265814512202e-06  4.5060781991620638e-06  3.5107836682102018e-06  4.2558249402681700e-06  4.8047656857258921e-06  4.2168426178685145e-06  2.8440224674513437e-06  4.3660555292574501e-06  3.9738550202355981e-06  3.9554525295984200e-06  4.1103377074288163e-06  1.5194901245962155e-06  1.3856972263608475e-06  4.1950214659159864e-06  4.7568459410404183e-06  4.4357731456240874e-06  4.1870207265577084e-06  4.3982614701412962e-06  4.1572374827377132e-06  4.5381392756614625e-06  4.5150788242134858e-06  2.6185484583101075e-06  3.2437137596845449e-06  8.6409388102253049e-07  6.2488567512592591e-07  4.6675584776416521e-06  4.7480859815969501e-06  4.5630854828107385e-06  4.6192082494887739e-06  4.8142101636366538e-06  4.4386322270579560e-06  4.4955067778322157e-06  4.6421553979647342e-06  1.5868434049720642e-06  4.2865842279459090e-06  4.2737400389194492e-06  4.3897983316405194e-06  3.2869291349638187e-06  2.8564566041960621e-06  1.5705773682020626e-06  2.2928838219641179e-07  2.7163354128077378e-07  4.1761383886583882e-06  2.4486158787948747e-06  2.8818044282568255e-06  1.5429933930786891e-06  4.0119644738632224e-06  4.2240091116190924e-06  4.6642912070146955e-06  4.5930910095912019e-06  3.9941997642461658e-06  4.7781691298706334e-06  4.2028697912316121e-06  4.2554883118095261e-06  4.4607049687410561e-06  4.8053257004923583e-06  4.0530341052007709e-06  4.6996692629557562e-06  4.5529014864553697e-06  4.6278701108799567e-06  4.5502948282718533e-06  4.7731873174927698e-06  4.4232406595743422e-06  5.9589693035572108e-07  4.4124257063367042e-06  3.0292105564305853e-06  3.7944022869294265e-06  4.6097629257134681e-06  1.1965239708625184e-06  4.7005538223531068e-06  1.2741974427435319e-06  6.1622138438236707e-07  3.9003348829717000e-06  4.0162822565102221e-06  4.5546850460654400e-06  4.3783678143644493e-06  4.6540910386744677e-06  1.2208214145775140e-06  4.2447241636143698e-06  4.2433730959901089e-06  4.5643199051239448e-06  4.0727314314341842e-06  1.4751634909745131e-06  2.3299158094421296e-06  1.1971274545847318e-06  4.3484959870198552e-06  2.6517149899202542e-07  1.8846850094868846e-06  2.4954476452303365e-07  3.1325318447033698e-06  4.6708545653568116e-06  4.6634486781409902e-06  4.5987071840614221e-06  3.6258598087956818e-06  4.3439466940622089e-06  4.5663995828187535e-06  4.7926462429057657e-06  4.7255956447264959e-06  4.6639802339987894e-06  4.7924639874688948e-06  4.4754965344999850e-06  1.3503513029372517e-06  4.8083544936406182e-06  4.5446053975253667e-06  2.9954637824354102e-06  4.3908800565159915e-06  3.5967699582799741e-06  2.8525129223653370e-06  1.4729710889426764e-06  4.5593217683345796e-06  3.0872570760156071e-07  2.2362887560908288e-07  4.5666497126835763e-06  1.8462981819481167e-06  2.9443007356694056e-06  4.3285541832590708e-06  4.3744187973365697e-06  4.4125024186128018e-06  4.1394759049397938e-06  4.4743116993279609e-06  4.4720155004183272e-06  4.1352786648944521e-06  3.9134803435339588e-06  3.9473007093385042e-06  4.2402230342623210e-06  1.6120804095598434e-06  1.3265227148113872e-06  1.4992789327969682e-06  9.8123715259786858e-07  4.4669453605962119e-07  4.7098165484054803e-06  2.3812282149023427e-06  2.2809861293267733e-06  4.5950044067590958e-06  4.2525800328605467e-06  4.0393170967997115e-06  4.0033540099825176e-06  4.5906562746761537e-06  4.7218827772385729e-06  4.3190828029233836e-06  4.0465660230946056e-06  4.5778545754545703e-06  4.7250551909990442e-06  4.5288721874039034e-06  4.5893975976838124e-06  2.7068166307900967e-06  1.4957165927276663e-06  2.0697459785160506e-06  4.2567409912249978e-06  4.3058494994188777e-06  4.3329112641996862e-06  4.3450192984576208e-06  4.1793154188826140e-06  4.1216289532420566e-06  4.5849999892667281e-06  4.5590818301184741e-06  3.8560527247914551e-06  2.9880334824902086e-06  2.0756409237549388e-06  4.4762900354694106e-06  4.7140433948321300e-06  4.2389113183496797e-06  4.5422893524277881e-06  4.6224794433251839e-06  4.8101382078202397e-06  4.3035991855751122e-06  4.4670085359690454e-06  4.2146487707341319e-06  3.9224366204217328e-06  2.9360069050347082e-07  2.9550612812601331e-06  3.6397431555439642e-06  2.0837777626223637e-06  4.6286196656556667e-06  4.2877298615985815e-06  4.7457326437469341e-06  4.6456210691446640e-06  4.6984829860862380e-06  4.6665014419543806e-06  1.6075837885855527e-06  1.8930834025027344e-06  2.1028527220056667e-06  4.4567536847323552e-06  4.1182637516175746e-06  3.5694295470881569e-06  4.1816472590019375e-06  1.5788743652891003e-06  4.4152118272392516e-06  3.1422114240504422e-06  2.4982804711857235e-07  2.1434939314692092e-06  3.5189649008239194e-06  4.5961599675134200e-06  4.0410578354163385e-06  2.7534406557782973e-07  4.4929821158314565e-06  4.7945023509557791e-06  4.7827758508813162e-06  4.1985976555194052e-06  1.4314369023360991e-06  4.5242851385104425e-06  4.6807147814988966e-06  4.7896503841468582e-06  4.6945419265297102e-06  4.2822561412488588e-06  4.7079157117801455e-06  4.5757418431376042e-06  4.6524212457518599e-06  4.6150638994473322e-06  4.2785880880569587e-06  4.1445077232052573e-06  4.5207675821704242e-06  4.4034535210606244e-06  1.3351124407496580e-06  4.3995724274626759e-06  4.5705138294242743e-06  4.4345062466106562e-06  4.6865568605959867e-06  4.8095462290281090e-06  2.1219003489949892e-06  4.4702424925281102e-06  3.5575467833239423e-07  1.3642598455293307e-06  4.1178184537228635e-06  4.2743411997599604e-06  9.9804879179423154e-07  8.1996483322196721e-07  3.9720914365260476e-06  1.1363636772189149e-06  8.7143373530684394e-07  9.3204506942671693e-07  4.5266414397820199e-06  2.3717539798849312e-06  4.5385019062391925e-06  4.0744821202699097e-06  4.7966547127869658e-06  2.3151195211270681e-06  2.4519145228331951e-07  4.1837390519975640e-06  3.9184711070599320e-06  2.6429792170279883e-07  4.2360164209522857e-06  4.3994691390014678e-06  1.1683584171481867e-06  4.6734186796323970e-06  3.9053922707925174e-07  4.1939044028881787e-06  4.6644064606211427e-06  3.3528918681473882e-06  4.5309424038977472e-06  4.6744730568532726e-06  4.7350491856431932e-06  4.4256424942489275e-06  4.4777331170106443e-07  4.2767669471880514e-06  4.8126771330862691e-06  4.0658771100649197e-06  3.2890764709732324e-06  4.1968206741681339e-06  2.7735227817651784e-07  4.4713388718165651e-06  5.5125877346621633e-07  4.7611423159819665e-06  1.3772616842722536e-06  4.7251324716540539e-06  2.3743228970357497e-06  1.4270101635040962e-06  4.1150072690761800e-06  1.4377420623004336e-06  3.1646622885523908e-06  4.2011551830265759e-06  4.3746053643847427e-06  4.5780837613148880e-06  4.4523510146809987e-06  4.6983832281834490e-06  4.6327894145972055e-06  3.8750075434376595e-06  2.9718853246687795e-06  2.1566342804855223e-06  2.6180594513855473e-06  3.9395854666564429e-06  4.4093674564470921e-06  4.4675721876143947e-06  3.9819711779906907e-06  3.1466762270359690e-06  3.5012443101255972e-06  4.4339531891766739e-06  4.7204185465283223e-06  4.7448632269574254e-06  4.7287954391698229e-06  1.3344976851968497e-06  3.9779635671238188e-06  4.6165400661795668e-06  3.7939085252561641e-06  3.5515658271555066e-06  4.4107239290712684e-06  2.5506648399334700e-07  4.3369507456387675e-06  4.0418395831633504e-06  3.9345088954025701e-06  3.9906868605332123e-06  5.8410738451900149e-07  3.7129805941869516e-06  4.3017901452956892e-06  4.4032518906479967e-06  4.2015394292302084e-06  1.0660760115491949e-06  4.6745430002761056e-06  4.7973495335668148e-06  4.4546364718886506e-06  4.6347978540217206e-06  4.3620372078435676e-06  3.9618929578146457e-06  4.2893952419066369e-06  4.3387755905800893e-06  4.5829497982963838e-06  4.6651863976588692e-06  3.9128889437567838e-06  3.9358238657963195e-06  2.4575840191439686e-07  2.5595767471513894e-06  3.1633344417385223e-06  4.2927841100880753e-06  4.4274985530501051e-06  4.5890164793456206e-06  4.2222339700627611e-06  4.2448045970850583e-06  4.4143837235987820e-06  4.0977978709878133e-06  3.1307991360978251e-06  9.2544581093205241e-07  4.1643941025567178e-06  4.7089787969543604e-06  4.3549329183457129e-06  4.3006529773238403e-06  4.5857934264409466e-06  1.6224337919084941e-06  8.1749079368246235e-07  4.3208433842692455e-06  4.4294774821786231e-06  4.6603127791991603e-06  4.5810484183527028e-06  4.2944307331581803e-06  4.4851721643978870e-06  1.1607960487353347e-06  4.6949136698398917e-06  3.1616079326012510e-06  4.6369103207537193e-06  4.0220815823396292e-06  1.7225174354039065e-06  1.6714587215165720e-06  3.3764892593977187e-06  4.7630841444272835e-06  4.2541322584916903e-06  4.7927393632084451e-06  4.7755606446346966e-06  2.8279853040687501e-07  4.2405627769399958e-06  4.6153710067647377e-06  4.1149540999571413e-06  3.8792539254443381e-06  4.0986620795857271e-06  4.1700562306730455e-06  4.1193052616302493e-06  4.2160089149834932e-06  4.5431733087166645e-06  4.4727783995412480e-06  4.3674794638002944e-06  4.5749777605100587e-06  3.4404826269587791e-07  3.8756275761381001e-06  1.3877055180481339e-06  2.3447246080765964e-07  4.0024254229813996e-06  4.7154840722916790e-06  3.2518175864019087e-06  4.7104059065549369e-06  3.1147979650022593e-07  1.9225286768466070e-06  1.1135937360397218e-06  4.3298537403670653e-06  3.1491549374282740e-06  4.4475684556232308e-06  3.4898296706680137e-06  4.6546400568756837e-06  2.6186068204084592e-07  4.8167844381336091e-06  4.5393459498640020e-06  4.1840721633329647e-06  4.6860884276163160e-06  1.2574555798688484e-06  9.2298296646005592e-07  4.6941109450011120e-06  1.2790850209031091e-06  3.5222527703149316e-06  2.8625050265270645e-06  3.3603911992691989e-06  2.8974653884905435e-06  1.4651250419148634e-06  1.7148937416591013e-06  2.2300757971160509e-06  3.8470639041390222e-06  2.3616861921278052e-07  4.4484761283326735e-06  4.5214769091805068e-06  4.7886877961584364e-06  4.5521235550792509e-06  4.8110228844313072e-06  4.7374083865579519e-06  4.5880795393423899e-06  4.7273679695800499e-06  4.5992445078637294e-06  4.7793428719776076e-06  4.3260263605568815e-06  3.6492445041556602e-07  1.4464165463906579e-06  4.8012207328531071e-06  4.8171799035669715e-06  3.5817938579104358e-07  1.3028328950270750e-06  4.4790707320660077e-06  4.3712647015274327e-06  2.5117493076977809e-06  8.0272248779727326e-07  1.4133311549724087e-06  2.8480454654618557e-07  2.2495184747684559e-06  4.3185637816606690e-06  4.6415380931002315e-06  4.4240199880728605e-06  3.0469360493746488e-06  4.1614363175294159e-06  3.6644871503210606e-06  4.2479650513252498e-06  4.3174463562233884e-06  4.7635694843444200e-06  2.6568073709858099e-06  4.1104833043090775e-06  4.2191475890793328e-06  4.2299039478275452e-06  4.3495317143724354e-06  4.4968718134577529e-06  4.5078624751604958e-06  4.5892384830268484e-06  4.3535564903063164e-06  2.8830667263908788e-06  4.5972475965262278e-06  4.7417627909260111e-06  4.5112283369484842e-06  4.4727976271523852e-06  4.3282797304621103e-06  4.4049012476197265e-06  4.0713903186809810e-06  4.1846806620779722e-06  4.6128345231159640e-06  4.3801802659943844e-06  3.9562857807768319e-06  3.8708816413248942e-06  4.8049707324733820e-06  4.2089732507228766e-06  4.3222372644407633e-06  4.4931941104112053e-06  2.7805236387439709e-06  1.4635795622250683e-06  1.4020891582184271e-06  4.4917794666673448e-06  2.7567829983229495e-06  4.4998318031629259e-06  4.3213568518203473e-06  4.6110260854875954e-06  4.5716538419844127e-06  4.5701231108556912e-06  4.5410902793579794e-06  4.5625943244017565e-06  4.8044741555346911e-06  4.7145501061733349e-06  4.2674175270046610e-06  4.5616583711817137e-06  3.2884808651768485e-06  1.8036083904490782e-06  2.7593689275078537e-06  1.8948180980404889e-06  1.5253081344804264e-06  1.4953524777877161e-06  1.5760429517645009e-06  1.7495586161135890e-06  2.4131521871100363e-06  2.8351698131610303e-06  4.4008587264794444e-06  4.7078420114177932e-06  4.3301061117501367e-06  2.5629589330793753e-06  3.5140052101072668e-06  3.3217381771195682e-06  4.6473868380991796e-06  4.2608944804260064e-06  4.3530938822292261e-06  4.3412373913313583e-06  4.3513085394927783e-06  4.5606841876667375e-06  4.6268151238935505e-06  4.7300450077055140e-06  1.6746935388272288e-06  4.5647040072831126e-06  4.7069018757479266e-06  3.8740242119300273e-06  3.9328714763196841e-06  4.7204441475059310e-06  4.5004867407944713e-06  4.4370249023915867e-06  4.2222126812399489e-06  4.5923071144582917e-06  4.2204760854521140e-06  2.7865273846699003e-06  4.4995446000204955e-06  3.6436877342595628e-06  3.8971850293333155e-06  4.4413604374537419e-06  1.3590556699336648e-06  1.5558063664781751e-06  1.4235184245571661e-06  6.3570205626772017e-07  1.1147004552692927e-06  1.3300977896270925e-06  4.3833630021704263e-07  2.8103716835992361e-06  4.1477794986891717e-06  1.4480666347967936e-06  2.0543570774970421e-06  1.6315316216215598e-06  2.0475188896802929e-06  1.6937617869049243e-06  2.4437757748921245e-06  4.5961158181674096e-06  4.6900995536419321e-06  4.3601491305368352e-06  4.0696852335239088e-06  4.6355408126759867e-06  4.0071941335218555e-06  4.0295230629648257e-06  4.2703312856470378e-06  4.2920116572732969e-06  4.3886084312038668e-06  4.6422673200323114e-06  4.7894114694291283e-06  1.5244925927465653e-06  4.6813450042342831e-06  4.6533595763915631e-06  4.7299118139305714e-06  4.5992855928337908e-06  4.6387107184239360e-06  4.1279121852633785e-06  6.1954238752824000e-07  4.6159834936978549e-06  4.5193012086687073e-06  4.4596502939095311e-06  4.3443364565771794e-06  4.5404053724689812e-06  1.2405589739205355e-06  3.8025223818079045e-06  4.3242475068465520e-06  4.5200551470681829e-06  4.7509673187780829e-06  4.3168557239184392e-06  4.4567298862144495e-06  3.7588113296077438e-06  4.7631890125159065e-06  4.5908609472501003e-06  2.5118452253383843e-07  1.2684431008184992e-06  4.4058430287793237e-06  2.4635530476862873e-06  4.0229580426477891e-06  4.2001876603501090e-06  4.6644190790190735e-06  2.8180002731834813e-06  4.7478792017987929e-06  3.2822767235703846e-07  4.6168327441489581e-06  4.3846646661599614e-06  4.3229675663662514e-06  5.4477059554052054e-07  4.0452070836099436e-06  1.1329238353417549e-06  3.8802525532860457e-06  3.8556363737697061e-06  4.1563926725462670e-06  4.1493475048268259e-06  4.2155193222091800e-06  4.6449918658519144e-06  4.3337122449506349e-06  4.3787150356811175e-06  4.4705390657540291e-06  4.2143279913127966e-06  4.1630928292514334e-06  2.0143095473805015e-06  4.2721163737810170e-06  4.5947593916229235e-06  4.5483849405747859e-06  4.4209486253741327e-06  4.5416894995991938e-06  4.5067183812922095e-06  5.2325415573282375e-07  4.1148759796641776e-06  2.9057707756420977e-06  4.3712562370359510e-06  2.3752602630302695e-06  1.3748057846939950e-06  9.9095934223954306e-07  3.5542011022532978e-06  4.3403401937689359e-06  4.7591073441146377e-06  4.6370552187957934e-06  1.3807489569699765e-06  4.7419914451517196e-06  4.4567175952815220e-06  3.3672945930081210e-06  3.4319776556321685e-06  4.1479734564511147e-06  4.0191139963306636e-06  4.1992903738720953e-06  4.8059912286112412e-06  4.3940493363884798e-06  4.4221345634117661e-06  4.4870395743175444e-06  4.6879244824606166e-06  4.7162620553148779e-06  3.6090404239637839e-07  4.4400925722499516e-06  2.2630413332697881e-06  4.7833847023898143e-06  4.7725847992813508e-06  4.8073456653239008e-06  4.6103707847443631e-06  4.5174864876148724e-06  4.4443117657178699e-06  4.4398675164582211e-06  4.2683176747950097e-06  4.4580516142125593e-06  4.0391312810315701e-06  3.0983297101104255e-07  3.2074536001495862e-07  4.5936691882796405e-06  4.2278008603790512e-06  4.6042687490785735e-06  4.6890191162920828e-07  1.4930918419828800e-06  4.4922682340309776e-06  1.2726870260094364e-06  1.0793212802798356e-06  1.7442182544439601e-06  4.2933440099699628e-06  2.6405791161724392e-06  4.5575269723859556e-06  1.3865218707438486e-06  4.7795684996887040e-06  4.1760620508190325e-06  4.3101569771657507e-06  2.4905984129873284e-07  1.7800863235851108e-06  1.4862466710573442e-06  4.0866794043478633e-06  4.0105521188301672e-06  4.1941697747630550e-06  4.8017738527856899e-06  4.6072732955886965e-06  4.4160079605999939e-06  4.2050419339751754e-06  4.7933835817955310e-06  2.5562529844559347e-06  4.7491318049578288e-06  4.7778994852778778e-06  4.4518461357033046e-06  4.5066355979966381e-06  3.6567424050851917e-06  3.9768908417677042e-06  4.5875108117841535e-06  4.1850047435253033e-06  4.6232777375639836e-06  6.4205680943341033e-07  8.9493468552497242e-07  4.4375426841933400e-06  3.9729722323925201e-06  4.7021731055843204e-06  4.7016984527786402e-06  4.6897473205472086e-06  4.6929580119768569e-06  4.4947078616473178e-06  4.3045434938151499e-06  4.2849218520690183e-06  3.4635258523725650e-06  4.7136378970705043e-06  3.6969307580817549e-06  4.3191297064905530e-06  4.6549838027550822e-06  4.6828824333524925e-06  3.5194561365737683e-06  4.7310956277704635e-06  4.4260563090941575e-06  4.2374630944720869e-06  3.8931777395380795e-06  3.1724064086135350e-06  3.7484770849176277e-06  4.1244966155854372e-06  1.1723037337881365e-06  4.6979837383544018e-06  4.7030214390959528e-06  3.5444808854729173e-06  4.5667096160778847e-06  2.9277909622600245e-06  4.3699599576040819e-06  4.1195600794075152e-06  4.7997660424897109e-06  2.3104603707489145e-06  2.1392951963698353e-06  4.0103862240080093e-06  4.6691324676648752e-06  4.1682202713889132e-06  2.2208853726054749e-06  4.6250975086431918e-06  4.4269725010544356e-06  1.8580681821358582e-06  3.9965153865284040e-06  4.0706309354127123e-06  2.0050495937157802e-06  8.6251675722860743e-07  4.2262711802425188e-06  4.0649707144786315e-06  4.1572885570867157e-06  4.1063258467183016e-06  1.7049559603454206e-06  4.4497514623923495e-06  4.1627696033156927e-06  4.6772341158482705e-06  4.6467000441935255e-06  4.2565045866856759e-06  4.2183822327435849e-06  4.5876152088461216e-06  3.2813948519995862e-06  4.7985172407977930e-06  4.7872514919615978e-06  1.3831867277205413e-06  4.7510322060900371e-06  4.6326875999563520e-06  4.7985266641818140e-06  4.7795542474333155e-06  4.0656810011533577e-06  1.4926588638736637e-06  1.4796315768444437e-06  4.7568953354488087e-06  5.2750031561743737e-07  1.2722606971287076e-06  4.2185413262434242e-07  7.1952539898425617e-07  1.3798477041709003e-06  4.7489841667956775e-06  1.3120624293869618e-06  3.4887354050740283e-06  4.2114324331831694e-06  2.5737475102036358e-07  2.5466461862575073e-07  4.5005021169443714e-06  4.3747137180400551e-06  7.7807728756829113e-07  4.2608638797705290e-06  2.3884160690988019e-07  2.9641762979442628e-06  2.2402364693386704e-07  3.7256930862673353e-07  7.0003555722777774e-07  8.7829238889862408e-07  4.3098985706626099e-06  4.2306461541712693e-06  2.2607791844202574e-06  4.6826687420330415e-06  4.6547314699713674e-06  4.6685566084859570e-06  4.6183057568466014e-06  4.7831228859670769e-06  4.6329657126965691e-06  4.4895322286998156e-06  1.9025220917372464e-06  4.2756766713215127e-06  4.1659120621926679e-06  4.1074954361768588e-06  1.4897350386911807e-06  2.4983183927941867e-06  4.3087922895735883e-06  4.0510629203859305e-06  4.5065330621071910e-06  4.5781355906253602e-06  4.6711552420852762e-06  4.3481180030697668e-06  1.7774469009320228e-06  4.3384938934654190e-06  1.4581378138321397e-06  4.6354586146824611e-06  2.4682030871069856e-06  2.0179391984378748e-06  4.5204321620911597e-06  4.812363607673783