<?xml version="1.0"?>
<VTKFile type="UnstructuredGrid"  version="0.1"  >
<UnstructuredGrid>
<Piece  NumberOfPoints="2446" NumberOfCells="4585">
<Points>
<DataArray  type="Float64"  NumberOfComponents="3"  format="ascii">0 0.41 0  0 0 0  2.2 0 0  2.2 0.41 0  0.2404508497187474 0.2293892626146237 0  0.25 0.2 0  0.2404508497187474 0.1706107373853764 0  0.2154508497187474 0.1524471741852423 0  0.1845491502812526 0.1524471741852423 0  0.1595491502812526 0.1706107373853764 0  0.15 0.2 0  0.1595491502812526 0.2293892626146237 0  0.1845491502812527 0.2475528258147577 0  0.2154508497187474 0.2475528258147577 0  1.1 0 0  1.1 0.41 0  0 0.205 0  0.55 0 0  0.55 0.41 0  0.275 0 0  0.275 0.41 0  1.65 0.41 0  1.65 0 0  0.8250000000000001 0.41 0  0.8250000000000001 0 0  1.375 0 0  1.375 0.41 0  1.925 0 0  1.925 0.41 0  1.5125 0.205 0  1.7875 0.205 0  0.6875 0.205 0  0.9625000000000001 0.205 0  1.2375 0.205 0  2.2 0.205 0  0.4687002074688797 0.2068568464730291 0  1.99375 0.2152743902439024 0  2.0625 0 0  2.0625 0.41 0  2.2 0.3075 0  0.4125 0 0  0.4125 0.41 0  1.7875 0.41 0  1.375 0.1486128048780488 0  1.5125 0 0  1.7875 0 0  1.5125 0.41 0  0.8250000000000001 0.2613871951219511 0  0.9625000000000001 0.41 0  0.9625000000000001 0 0  0.6875 0.41 0  0.6875 0 0  0.1375 0 0  0.1375 0.41 0  1.2375 0 0  1.1 0.1486128048780487 0  1.2375 0.41 0  1.65 0.1486128048780487 0  1.126715909090909 0.2793064024390244 0  1.676715909090909 0.2793064024390244 0  0.8517159090909092 0.1306935975609756 0  1.348284090909091 0.2793064024390244 0  0.34375 0.3032389320646208 0  1.894702181800738 0.1282910975492754 0  2.092797818199262 0.1282910975492754 0  1.85625 0.3075 0  0.61875 0.3075 0  0.61875 0.1025 0  0.3648540804333487 0.1240075933101478 0  0 0.3075 0  0 0.1025 0  2.099172119769978 0.25625 0  0.48125 0.09238439620688085 0  0.5781001037344399 0.2059284232365146 0  0.48125 0.3196743479159776 0  0.7265881057911006 0.3055240343720796 0  1.99375 0.08395950269330846 0  1.459960956013612 0.3075 0  1.569025960719943 0.2986889805672169 0  0.75625 0.08213100772579164 0  1.03125 0.3278689922742084 0  0.923871252904788 0.3078247185783941 0  1.959375 0.3126371951219512 0  1.749222215368287 0.1025 0  1.275777784631713 0.1025 0  2.2 0.1025 0  1.225938124459196 0.3075 0  1.550777784631713 0.1025 0  1.000777784631713 0.1025 0  1.44375 0.07430640243902442 0  1.16875 0.07430640243902437 0  1.899250267340833 0.2229966846119207 0  0.1020898364287272 0.3140258291809757 0  1.766482954545455 0.2934032012195123 0  0.3405058858996321 0.2119987970531874 0  0.7710785630958338 0.1710968191298857 0  1.046078563095834 0.2389031808701144 0  0.2 0.3400647632937836 0  1.421109702350723 0.2261157654379721 0  0.2800464974185557 0.08982544815605742 0  0.098916018031319 0.09171660955420841 0  2.13125 0 0  2.118919042110979 0.3422084711244843 0  1.30625 0.41 0  0.89375 0 0  1.597888256393107 0.2173787389261347 0  0.20625 0 0  1.829299675393195 0.07400700849299596 0  1.71875 0.41 0  1.16875 0.41 0  2.038220665644273 0.332420740103091 0  0.34375 0 0  0.417496017710808 0.2696595573092803 0  0.2 0.07687845740457822 0  0.9295982307099278 0.1343158415898188 0  0.07390688010811153 0.1697064032433452 0  0.5238366813727013 0.2578302467013575 0  0.05452951551825875 0.25625 0  0.5229630068078351 0.1548816096928243 0  1.452769549894695 0.1548122580621249 0  1.369219062229598 0.07430640243902442 0  1.30625 0 0  0.8504409521244898 0.3356935975609756 0  0.8821881244591965 0.205 0  1.720943423819132 0.1714577452753128 0  1.157188124459196 0.205 0  1.094219062229598 0.07430640243902437 0  1.03125 0 0  1.304056576180868 0.1714577452753128 0  1.67579304192913 0.07430640243902437 0  0.2751941921308361 0.3346083473122598 0  1.209670467133757 0.1362100266964769 0  1.025335513626278 0.1700681449722324 0  0.7562500000000001 0.41 0  1.58125 0 0  0.7567170593862014 0.2409196493502535 0  0.6926714215682891 0.1272249611432207 0  0.4139715849905988 0.3397932387114203 0  0.9840787304190477 0.2717749043358119 0  0.06875000000000001 0.41 0  0 0.35875 0  0.9281250000000001 0.06276726142697993 0  0.5507396469029935 0.3219409231578227 0  0.5504468037989405 0.09136885600634273 0  1.58125 0.41 0  1.631724228912893 0.3381867502687533 0  1.825608881788174 0.14499488549201 0  1.85625 0 0  1.44375 0 0  1.44375 0.41 0  1.85625 0.41 0  2.13125 0.41 0  0.7562500000000001 0 0  0.89375 0.41 0  0.4812500000000001 0 0  0.34375 0.41 0  0.4812500000000001 0.41 0  0.20625 0.41 0  0.06875000000000001 0 0  1.16875 0 0  0.61875 0 0  0.61875 0.41 0  1.03125 0.41 0  1.71875 0 0  1.99375 0 0  1.99375 0.41 0  1.340625 0.3489494290853124 0  1.134375 0.3489494290853123 0  1.700180620188976 0.3438659752031281 0  2.135782184673599 0.07126652247502523 0  1.668441847249787 0.2129203728327609 0  1.295782514339747 0.2378437748815763 0  0.8233075729931248 0.06842334294821524 0  1.409375 0.3520314716057996 0  0.403505597322782 0.182067236678212 0  0.378125 0.05794951541303489 0  0.3043468223249023 0.1518321115979534 0  2.129248544730567 0.1906135162504124 0  2.060771381434487 0.1989445750470348 0  2.013252586573865 0.1496169464686054 0  1.942766402200229 0.1734448904596831 0  1.895522487186454 0.06076163953489683 0  2.069553871656643 0.06605731020975725 0  1.274680914880868 0.3520219391081363 0  1.614713220494657 0.09473434380863296 0  0.7899021319497519 0.3149123934144827 0  0.69518737419149 0.0634051089053758 0  0.2971740475496061 0.2592172353407536 0  1.72990325744076 0.2380068107952482 0  1.356580098625191 0.2120393231351682 0  2.034370752044885 0.2668681600792073 0  1.51768709249349 0.3426260931494756 0  1.561883724969884 0.1650446847858835 0  1.197344062229598 0.2523725417393646 0  1.804085235518364 0.3468178408964637 0  1.817887819205233 0.2589243285818559 0  1.905897727272727 0.3485060975609756 0  0.6719798073392919 0.2688965171178177 0  0 0.05125 0  0.653125 0.35875 0  0.6396896119294488 0.1627615407790282 0  0.4274150154087412 0.1242548552168279 0  1.192836486056382 0.3562350748565544 0  0.8279124365364005 0.183856489168822 0  1.097485222388854 0.2083571153401724 0  1.28257088594801 0.2944411014911587 0  1.474860187679412 0.2504218616229368 0  1.406767003493824 0.2829282258560709 0  0.446875 0.04619219810344041 0  0.515625 0.04585361801037557 0  0.592043440706648 0.05125 0  1.845656689180403 0.1998310418452388 0  2.144958525570388 0.2909790873294231 0  0.6171090763650112 0.2492366900333857 0  2.2 0.15375 0  0.5145586920831158 0.3648371739579888 0  1.57794966442982 0.3540357145964566 0  0.721875 0.3633107922168974 0  0.0496154796471391 0.333125 0  0.5843750000000001 0.3662560860076676 0  0.5810878747760798 0.1474002776121195 0  1.508991196088596 0.1421783375065625 0  0.8840670607017558 0.2640994375393898 0  0.09776612425612034 0.2204896805326566 0  1.50436820029908 0.06143401634903343 0  1.223857000523521 0.0823554862453532 0  1.153316824384777 0.1289850171317837 0  2.148922302309752 0.1258841779285271 0  0.309375 0.04312325590431198 0  1.621993280276081 0.2841214267927899 0  1.550118654119087 0.2461998729100966 0  1.327182649291491 0.1216967252533594 0  1.051977450479407 0.1221382572915816 0  1.753125 0.04556020050186112 0  1.271875 0.04556020050186116 0  0.9816084133102366 0.05126138213476004 0  1.039051841454368 0.0572224914831029 0  0.9719230514536006 0.3480477870845102 0  1.94956388244759 0.1180512551534177 0  1.949997712993411 0.04965831614304109 0  1.771961817615021 0.1530278789497521 0  1.909246823951428 0.2812757146784527 0  0.2459536687882397 0.04668633953831142 0  1.948575539857022 0.2445328248721197 0  1.697271520964565 0.1233917627620729 0  0.7964897648514618 0.1211426571931604 0  1.065625 0.3689344961371042 0  1.085849084308977 0.3170853572226867 0  0.4702981435440001 0.260434880697798 0  1.577403511714593 0.05463601888079143 0  0.05622663515370135 0.05493816910862376 0  0.3267207591099919 0.3566194660323104 0  0.9003051618565143 0.3564049499960621 0  1.751571320346033 0.3651102912045228 0  0.1583785085108421 0.2994699345738728 0  0.1455283439499995 0.3542795598723423 0  2.2 0.35875 0  0.2347662494194072 0.298325008655211 0  0.1527284455616188 0.1065771775690181 0  0.1382139529076665 0.05427454456341477 0  0.8749341636311069 0.05110114999892954 0  0.643661668713109 0.05693499781019222 0  1.466879772203159 0.3611261772912453 0  1.990280163552011 0.3564754268533217 0  1.17471064520912 0.2990917256188288 0  0.5202693090594349 0.206382495511728 0  0 0.25625 0  2.2 0.25625 0  2.2 0.05125 0  0 0.15375 0  1.853978576207987 0.35875 0  0.9787513713939683 0.1487523696999336 0  0.240625 0.3722153812029779 0  1.515638456102889 0.2882700110184686 0  0.09048297387599738 0.3637717362208066 0  2.150453692751374 0.2387066338105111 0  1.323782677156475 0.04897634338873398 0  0.8074131292871642 0.3624701995505916 0  1.409375 0.03715320121951221 0  1.406484531114799 0.1087852750766809 0  1.134375 0.03715320121951218 0  1.627401732573545 0.04552157221025036 0  0.1170173172005315 0.1427610859166811 0  2.045405893604797 0.1105340662939892 0  1.255408269734577 0.1577307500159216 0  2.028125 0.03707597992059326 0  0.4743610090857199 0.1421513964721819 0  0.9354010469015898 0.250631300585664 0  0.04420832937638274 0.128125 0  0.8922386349349938 0.0992956419364831 0  0.1197849154434487 0.2663398672460083 0  1.248258025468107 0.2565907092181813 0  0.3746885856929528 0.370723531618974 0  1.203125 0.0366132337404304 0  0.5724622277005015 0.2751253816079333 0  0.3365425205162783 0.08395777655057959 0  2.072662025974815 0.2975086504196739 0  0.4581080832182547 0.3648371739579888 0  0.3874522734668214 0.2295447548840689 0  0.7827853612484443 0.04106550386289586 0  1.887722846421017 0.1760882698830035 0  1.472640588990488 0.1118278026240017 0  1.865937103925594 0.2604137786483804 0  1.463913572748262 0.2030442564990043 0  1.376426316059077 0.3186741374914345 0  0.6641993820150034 0.3141688596240831 0  0.2943117490824315 0.2130987422685822 0  0.3478153998082709 0.1666571081082676 0  0.3427990510599805 0.2575950027870776 0  0.7997118993855807 0.2216171933356366 0  
[...]
<PointData  Scalars="f_9-2"> 
<DataArray  type="Float64"  Name="f_9-2"  format="ascii">1.3625714234006796e-07  2.0157904111684359e-07  3.2300129439177526e-06  3.2191698376089250e-06  1.8036592681189834e-06  2.3830586204970689e-06  1.7786501172105089e-06  7.7276045948689430e-07  3.8018080640933886e-07  2.6203259436825002e-07  2.2420925844531037e-07  2.6137852252597222e-07  3.8064605189368353e-07  7.6597507961519735e-07  4.3054711516216364e-06  4.0800500795795738e-06  1.6343545211874518e-07  1.4645262514246680e-06  1.3521345174781655e-06  9.9893890259237901e-07  8.1807035319793644e-07  3.8602226906835605e-06  3.8784081139735374e-06  3.3846534973198080e-06  3.6054141558509441e-06  4.1096572898084305e-06  4.1017742360177500e-06  3.5915770120034391e-06  3.5392731982858310e-06  4.2746878510518147e-06  4.0792978126939505e-06  2.6801930336975704e-06  3.9278203815906031e-06  4.3304951801364242e-06  3.7386172553746534e-06  1.8493748090374685e-06  3.9062304574872894e-06  3.3762701759881585e-06  3.3805262204302935e-06  3.6533665778846021e-06  1.0921146236547358e-06  9.6182559435130896e-07  3.7250623530157148e-06  4.2912870962505554e-06  4.0260546517332046e-06  3.7298271329308092e-06  3.9580523014121611e-06  3.2577818849215387e-06  4.0301104678158034e-06  4.1132375904733737e-06  2.0091402360957141e-06  2.9350590897745987e-06  6.0262792609664692e-07  4.0471228092157512e-07  4.2253594607467571e-06  4.3391481761221006e-06  4.1639628093824798e-06  4.2011975603741837e-06  4.3341932985257237e-06  4.0376109427634945e-06  3.6701617971564239e-06  4.2599330388690798e-06  1.1409653990420180e-06  3.9116311460079690e-06  3.7831363958942193e-06  3.9500609717190256e-06  3.2431573533921270e-06  1.7646104154546161e-06  1.4020102979591781e-06  1.3975563583938056e-07  1.7215724182725420e-07  3.7672384108292507e-06  1.9835176190822264e-06  3.1517359153640452e-06  1.1327486312139953e-06  3.2463227540437170e-06  3.7841779632233659e-06  4.2558754408627251e-06  4.0921376363169605e-06  3.9085038305656982e-06  4.3285141599568528e-06  4.1389271700932892e-06  3.7179444655109924e-06  3.9573290532029673e-06  4.3547032394060172e-06  3.4559648528474675e-06  4.1997330727368682e-06  4.1973027909239027e-06  4.1563267917625277e-06  4.1372186791348219e-06  4.3746344159970514e-06  4.0111775306697966e-06  4.0402987995102274e-07  4.0476571794176982e-06  2.7482281052663364e-06  3.8139755291969905e-06  4.2816109564119987e-06  8.3294154891114566e-07  4.2992490432838174e-06  9.5852592733300438e-07  4.3445301351899085e-07  3.2725921125464341e-06  3.5239499860705436e-06  4.1484336219165911e-06  3.8205246460492701e-06  4.2063368372407661e-06  8.6626700507326552e-07  3.7986959179698096e-06  3.8053970568080575e-06  4.1364391065614898e-06  3.5737798854759133e-06  1.0548078571047312e-06  1.4637242795954616e-06  8.8486768229627854e-07  3.9316573447016180e-06  1.7083044592011598e-07  1.9716258613958414e-06  1.5734070141505182e-07  2.9977962751808259e-06  4.2298073599124441e-06  4.1894619982077347e-06  4.1590260517879770e-06  3.3751825898564758e-06  3.4718843080478938e-06  4.1375290186086175e-06  4.3425423686751927e-06  4.3487699199568690e-06  4.2818440039290171e-06  4.3253911815310204e-06  4.0180941059444864e-06  9.5104906390896860e-07  4.3870072853960114e-06  4.2283795629543887e-06  2.6465587970298953e-06  3.9628822317793146e-06  3.5725163545742565e-06  2.9167364636442784e-06  1.0143214117294722e-06  4.2404274907201792e-06  1.8915636544389135e-07  1.3284435369274489e-07  3.9817954697798024e-06  1.9237700782596183e-06  1.8193981525423715e-06  3.9035865166250908e-06  3.9479451570864509e-06  3.9364780031686894e-06  3.6678923806447691e-06  4.0694983511472239e-06  4.0332000636965860e-06  3.6345362282380567e-06  3.2855518139642347e-06  3.3922935154896994e-06  3.8740340426864958e-06  1.1663767243870943e-06  9.0627146493022433e-07  1.0850380908458775e-06  6.5168252604983251e-07  2.9559529389716374e-07  4.2790568821692849e-06  2.1757346427410770e-06  1.6615217642353696e-06  4.0500258732894806e-06  3.7960562456814231e-06  3.4856285060705464e-06  3.4620482500971313e-06  4.2139553170110193e-06  4.1728597570148365e-06  3.9341153300882114e-06  3.4365385555323893e-06  4.1357988963726213e-06  4.2531268005995619e-06  3.9676803232180907e-06  4.1857244858970970e-06  2.6959413120919524e-06  1.1088070368598530e-06  1.6663833685790163e-06  3.8223706884204447e-06  3.8619280939909866e-06  3.9259545607465508e-06  3.9715591592245459e-06  3.7529254705641857e-06  3.5629060870270157e-06  4.1951275598664262e-06  4.1596337576416532e-06  2.8304321428068319e-06  3.0776550103715504e-06  1.7760619737986642e-06  4.1023868702279136e-06  4.2886952888377223e-06  3.7416425549659283e-06  4.0700237136823798e-06  4.2509538240407370e-06  4.3077225139220522e-06  3.8708709211532354e-06  4.0687703599796678e-06  3.6987275228260989e-06  3.2022274857349104e-06  1.8530446799868088e-07  2.2707667450320139e-06  2.2354823135273751e-06  2.3345861582275487e-06  4.1578268805860607e-06  3.6923353581114208e-06  4.3107644992897094e-06  4.2225591061474597e-06  4.3000752442575185e-06  4.2905371788929267e-06  1.1915465859334143e-06  1.3156843167428060e-06  1.6192663198532068e-06  4.0142568420195832e-06  3.7182430569564393e-06  3.1461503482611152e-06  3.6194020932104012e-06  1.2263780111819143e-06  3.9576727241004674e-06  2.3020729776285032e-06  1.5282169098924708e-07  1.7659974166827404e-06  2.6650863723931349e-06  4.2247462914770158e-06  3.5738091408661421e-06  1.7727384145507566e-07  4.1152697756004282e-06  4.3698581888942930e-06  4.3838576079172000e-06  3.6301277327899124e-06  1.0324558451771896e-06  4.0432969323478275e-06  4.2419753597091447e-06  4.3218651696439842e-06  4.2744373510664969e-06  3.8107689687428810e-06  4.2587998355772988e-06  4.1065961163545295e-06  4.2704950038790531e-06  4.2414716620091139e-06  3.9137611961318127e-06  3.6798641757221946e-06  4.0338548399796391e-06  3.9374910976412999e-06  9.6539158509840529e-07  3.9384430154940618e-06  4.1189454753316273e-06  3.8703523287574322e-06  4.1564213213548444e-06  4.3210480759459120e-06  1.3770616778443833e-06  4.0730233659529931e-06  2.3158244140277452e-07  9.4333948148759610e-07  3.9437153205787866e-06  3.8542352676774235e-06  7.0206304158626951e-07  5.5410470985221674e-07  3.3779759814928263e-06  8.0820190762850044e-07  6.4902120031920615e-07  6.6258448043610385e-07  3.9020505778221870e-06  2.2115505831306190e-06  4.0963442784756505e-06  3.5451186105666084e-06  4.2511449038637413e-06  2.4145599713865091e-06  1.5399371806183481e-07  3.7637853864428504e-06  3.3031823119515241e-06  1.6903301044472942e-07  3.7543680842053300e-06  4.1191371635558318e-06  7.9376856220857002e-07  4.2262852906685270e-06  2.4877110790976205e-07  3.7956868504935207e-06  4.2028710631348339e-06  2.9706676703378789e-06  4.1097810448194437e-06  4.2007835529399280e-06  4.3238898572039640e-06  3.9944797793084183e-06  3.1996476352742950e-07  3.8160769962183115e-06  4.3624244540741314e-06  3.5146373675227590e-06  2.9167463040957039e-06  3.9537736003115592e-06  1.7824181859408680e-07  3.9649724278337923e-06  3.7905983063870845e-07  4.2493061636599595e-06  9.4680655026131287e-07  4.2988817854806556e-06  2.9887878516119247e-06  1.0730247869394521e-06  3.6697477235021031e-06  1.0212967620581975e-06  2.3853719369262677e-06  3.7136944515769628e-06  3.9701568988293738e-06  4.1825580009529134e-06  4.0350838068826020e-06  4.2787366552912361e-06  4.2622062311878023e-06  3.3010471764103797e-06  2.6293701766599420e-06  2.1094566403694293e-06  2.0456979538828225e-06  3.7021570057594185e-06  4.0554139199279216e-06  4.0919165060662118e-06  3.3713937250455530e-06  3.3002391043203882e-06  3.8043805467149118e-06  4.1504448937601547e-06  4.3131518265533133e-06  4.3245338872710714e-06  4.2984015929177984e-06  1.0589256615914869e-06  3.4224909071824776e-06  4.2289706149021257e-06  2.6210176943215074e-06  3.1831183360105456e-06  4.0090750496880566e-06  1.6269455338248639e-07  3.8166721202061465e-06  3.5513680972539686e-06  3.3351038545911145e-06  3.4595008112519302e-06  3.9830049608252728e-07  3.4510026060576990e-06  3.8819260115552984e-06  3.9059263755513513e-06  3.6768350632691438e-06  7.5202352329111278e-07  4.2844648018253107e-06  4.3640479425236228e-06  4.0493921951725037e-06  4.1985317598622298e-06  3.9286077155967187e-06  3.6846512744200196e-06  3.8350021050453400e-06  3.8701415600589742e-06  4.0466696251084685e-06  4.1799177682303426e-06  3.2865608106518092e-06  3.3273915906414914e-06  1.4650692212814998e-07  2.4132442509967721e-06  2.5676025441490949e-06  3.6759889709004507e-06  3.5597310621299766e-06  4.1128127101298362e-06  3.7627314713219042e-06  3.8382269331601275e-06  3.9963812066036653e-06  3.5684155851884209e-06  2.0796682951351992e-06  7.0822953478718916e-07  3.6780952440326066e-06  4.3170170388506706e-06  3.9877010173991056e-06  3.8915475380278574e-06  4.0739644298598950e-06  1.3525613649048059e-06  5.3755643305863107e-07  3.8883092787172248e-06  3.9845952694301602e-06  4.2618676189616618e-06  4.1732339017849795e-06  3.8535182682215392e-06  4.0878453810988109e-06  8.2983014747965132e-07  4.2892825903283848e-06  2.5448679756871199e-06  4.1482771343143348e-06  3.3775463330417919e-06  1.1745542194619633e-06  1.1242869495903684e-06  3.4667346196183574e-06  4.3807610810835067e-06  3.3785203905831521e-06  4.3318427668973248e-06  4.3501587881009192e-06  1.8684774209058808e-07  3.7269640504097309e-06  4.2438830931298448e-06  3.6102761480211384e-06  3.2912589986929740e-06  3.5850033274635183e-06  3.7207874889226357e-06  3.6337890367455392e-06  3.8226715413337901e-06  4.1850879395103089e-06  3.9883730680274675e-06  3.9150767656186698e-06  4.1505718388113324e-06  2.2057597569031046e-07  3.8023513234888836e-06  1.0160510077317487e-06  1.3976202969510256e-07  3.4665768058947154e-06  4.2471979424092195e-06  2.5398211038375633e-06  4.3308201405291871e-06  2.0041331198307581e-07  1.4042101984834972e-06  7.8789831503196092e-07  3.8449049109235993e-06  3.4906527065149851e-06  4.0816394429727019e-06  2.6093020098043659e-06  4.2479957176466074e-06  1.6755061004670739e-07  4.3262836914026598e-06  3.9308290539750323e-06  3.6828244596129876e-06  4.2996295681829252e-06  8.5835600821787232e-07  6.1950395499010433e-07  4.2810836579620413e-06  8.6901582754043051e-07  2.7663442730116912e-06  2.4348067298422033e-06  2.7587253322537769e-06  3.0744566871977090e-06  1.1758465864608637e-06  1.3650616886907901e-06  2.8128445805800997e-06  3.6559850413765676e-06  1.4620360784567201e-07  4.0489397720794663e-06  4.1160082817007266e-06  4.3028292808227816e-06  4.0786600121296975e-06  4.3530814509010441e-06  4.2528418925545229e-06  4.1438182536579676e-06  4.3470630210270295e-06  4.1709038246385083e-06  4.3221215953211468e-06  3.9507457006942819e-06  2.4806696551927659e-07  1.0080036185852813e-06  4.3924793373906819e-06  4.3816342096806211e-06  2.3719468014893346e-07  9.1496199354177774e-07  4.0021623926940617e-06  3.9775292578976442e-06  1.7200082887343107e-06  6.0985413703822643e-07  1.1480512855660862e-06  1.8044312255755839e-07  1.7072802799657555e-06  3.8987028781778711e-06  4.2367688389875850e-06  3.9728190502092626e-06  2.1572197166891594e-06  3.6992299739546471e-06  2.6204553727565911e-06  3.7912366334902500e-06  3.8305163282784671e-06  4.2946586715722481e-06  2.2153479426594967e-06  3.7028926740612664e-06  3.8137287199042192e-06  3.7848418737699520e-06  3.9578534985680028e-06  4.1231785660506027e-06  4.2344092388695372e-06  4.1979073393999720e-06  4.1127076744770110e-06  2.7449532580349063e-06  4.1504797465359257e-06  4.1998487177531118e-06  4.0177561415715634e-06  3.8796759949173954e-06  3.6992567995172381e-06  3.7695979049159657e-06  3.4648175994548383e-06  3.6168415906634027e-06  4.2301394944798347e-06  3.9648459353382211e-06  3.3866301546139903e-06  3.4935580720787650e-06  4.3419645934015452e-06  3.7317570589311072e-06  3.8988070137337336e-06  4.0174359539922611e-06  3.2227981808674482e-06  1.0626696040076793e-06  9.7407364073196628e-07  4.0475257072035411e-06  2.4115597558328436e-06  4.2799066268928824e-06  3.8110911865204571e-06  4.1337036499900205e-06  4.1089659001951695e-06  4.1792189937627095e-06  4.1260051966763928e-06  4.1605236776011804e-06  4.2644411974611252e-06  4.2758770044750669e-06  3.7742398355392144e-06  4.1561379665109063e-06  3.0282125470810343e-06  1.5356369912491259e-06  2.7325721770987451e-06  2.2986209179364138e-06  1.1169228007942609e-06  1.0720973824431345e-06  1.3409018693631868e-06  1.8758071033266438e-06  2.4699598853609692e-06  2.4916804532614904e-06  3.9573402316153941e-06  4.2696483952566909e-06  4.0451860284304888e-06  1.7542972257477428e-06  2.6797198774675448e-06  1.9396167881652311e-06  4.2639024178552015e-06  3.8332911564850940e-06  3.9411645117515556e-06  3.9054720302585565e-06  3.8303385969102472e-06  4.1599982710974767e-06  4.1121509528499359e-06  4.3115078760316675e-06  1.2016544034689362e-06  4.1327476923200269e-06  4.3059911635182514e-06  3.2407416214390594e-06  3.3168020896154834e-06  4.2952201553026749e-06  4.0900083917249495e-06  3.9944539008373477e-06  3.7696998838320525e-06  4.0607387132324996e-06  3.7633632477667940e-06  2.2840548907954625e-06  4.0673115088939931e-06  3.2129351659074918e-06  3.2426765601132817e-06  3.9687758280796863e-06  9.3420716655506359e-07  1.1167650900896680e-06  1.0057846126106566e-06  4.3428558543427425e-07  7.4708078495836990e-07  9.4583038060997171e-07  2.7716159729618884e-07  2.5861095087289988e-06  3.5138859116670657e-06  1.0327108887215060e-06  1.5039689517915843e-06  1.2014982405300790e-06  1.7843788037474830e-06  1.2675020772954516e-06  1.7953861591156722e-06  4.2190840149916509e-06  4.2523686835131183e-06  3.9210324121155256e-06  3.5408566566355027e-06  4.1916923622560801e-06  3.4302833875032578e-06  3.4977224263060675e-06  3.8523506728939962e-06  3.8747971370977601e-06  3.9687265482789542e-06  4.1959095995460276e-06  4.3686216105102088e-06  1.2457172341994570e-06  4.2573699761383828e-06  4.2395087478978662e-06  4.1859347994442651e-06  4.1110396464767543e-06  4.1916838183733573e-06  3.6531736967569877e-06  4.2823074544275595e-07  4.2019379901767075e-06  4.0905428331877735e-06  4.0757975308024029e-06  3.8613170614807926e-06  4.1313629190468915e-06  9.2397680181479189e-07  2.7631436493802370e-06  3.8672086063380501e-06  4.0830264786138154e-06  4.2853952578139416e-06  3.8008415622990927e-06  4.0078273470383852e-06  3.0075086199230961e-06  4.3349182710130093e-06  4.1081991376091273e-06  1.5931114201797650e-07  9.1549243172587879e-07  3.9811242216095617e-06  1.8722206272071138e-06  3.4398468315182150e-06  3.6605876374217857e-06  4.2395654594693886e-06  2.0694648520442958e-06  4.3073850335311319e-06  2.1591232810619467e-07  4.1902871659675474e-06  3.9903676123961800e-06  3.9544016896188316e-06  3.5301939568096509e-07  3.5764865795141991e-06  8.2186260281740606e-07  3.3934700257717815e-06  3.4278583293801299e-06  3.6555106558063332e-06  3.6615504115517315e-06  3.7511716340461345e-06  4.2886442260510490e-06  3.8908038866794805e-06  4.0121134988500354e-06  4.0506781925206116e-06  3.7989831465977745e-06  3.7653023468525052e-06  1.8653177738382746e-06  3.9210872406091809e-06  4.2326629762208822e-06  3.8156297769344975e-06  4.2008470790330350e-06  4.1646003209689500e-06  4.0774666938234631e-06  3.8717740099958474e-07  3.5965265521191978e-06  2.5206688834756278e-06  3.9320941874068462e-06  2.1318511040930931e-06  1.0792943125211729e-06  6.9994721859386871e-07  2.0816887458187658e-06  3.9109373162718166e-06  4.3735282817691611e-06  4.2584314602749147e-06  1.0045653292161745e-06  4.2606299425478617e-06  4.0948198820419638e-06  3.1152388601038210e-06  3.0080830669167169e-06  3.6441607786899537e-06  3.3302525945051691e-06  3.6669593446896912e-06  4.3632076887555991e-06  3.7721198516655057e-06  4.0083728815459219e-06  4.0706027686030133e-06  4.3116795180328168e-06  4.1902368454051442e-06  2.3935536631383504e-07  4.0830208352473658e-06  2.0482226044140034e-06  4.2814320180690739e-06  4.2436176505022810e-06  4.3411297835608264e-06  4.1766577494150327e-06  4.1314344069542864e-06  4.0644852053909779e-06  4.0305898821246413e-06  3.8420787605566981e-06  4.0584487187312358e-06  3.5060556049926016e-06  1.9605082094979728e-07  2.0431607467292802e-07  4.2370993950906944e-06  3.8415433092743318e-06  4.2218568536847595e-06  3.1719081000978087e-07  1.0447100690313082e-06  4.0148381228867462e-06  9.0857785284455293e-07  7.3186825220738708e-07  1.1792690507563452e-06  3.9089294827497774e-06  1.6090049216792022e-06  4.1555581228497816e-06  9.7993240772277074e-07  4.3371316359602652e-06  3.6888324197899532e-06  3.9595682768372165e-06  1.5763658858414469e-07  1.3635766456344135e-06  1.0708927087345565e-06  3.4980913730830562e-06  3.0478697989034966e-06  3.7425574125064533e-06  4.2989207408715671e-06  4.2029055608433652e-06  3.9747823677630781e-06  3.7639761647362010e-06  4.3400480348742230e-06  1.5592875904334470e-06  4.3165270221786029e-06  4.3283812229601904e-06  3.5973091786476370e-06  4.0521974604242877e-06  2.4244829303584630e-06  3.3603845275338001e-06  4.2484628766293655e-06  3.7313941349235637e-06  4.1773872449355630e-06  4.3051165520441836e-07  6.2039152625804604e-07  4.0110284052632619e-06  3.8576214257377465e-06  4.2966231424536420e-06  4.2982386804405117e-06  4.2882301459715267e-06  4.2901135311791075e-06  4.0883008918819555e-06  3.8266622728729916e-06  3.6662445765865992e-06  3.5320491121122048e-06  4.2946019842079762e-06  3.7086645143400143e-06  3.5045448304998679e-06  4.2790222012513532e-06  4.2997937878304111e-06  2.6360618458188679e-06  4.3325609751964729e-06  4.0046951833005637e-06  4.1307973167875902e-06  3.0260185449123013e-06  3.3469841709722628e-06  2.7480677644723174e-06  3.5372769401126132e-06  8.2276269667922924e-07  4.2144545748809132e-06  4.2315056667758331e-06  3.3198917743659565e-06  4.1709548845598809e-06  2.3951058873704994e-06  3.8855646413727814e-06  3.2976726953513289e-06  4.2666014168124003e-06  1.7496596096260699e-06  2.5068253628537819e-06  3.4716332076890221e-06  4.2884556119651582e-06  3.4886570788308852e-06  1.4366472482941574e-06  4.2197963439168206e-06  3.9907069911445964e-06  1.4733150866993327e-06  3.9062951100972051e-06  3.9689982194106772e-06  1.4354204032912178e-06  6.0778948257792581e-07  3.7745778118921594e-06  3.6233585761337249e-06  3.7694273411247085e-06  3.6712226631296382e-06  1.2906989736408606e-06  4.0309204498866586e-06  3.6305917547685104e-06  4.2642614623024248e-06  4.1968790703747817e-06  3.7953791283674592e-06  3.7583676084843598e-06  4.2106016736450685e-06  3.0618889402006337e-06  4.3870774155330249e-06  4.3921276522292831e-06  1.0207923720763565e-06  4.3026233783574047e-06  4.1739930914316715e-06  4.3424229231443365e-06  4.2802138252185038e-06  3.0677494484915863e-06  1.0937892996364005e-06  1.0910009047711340e-06  4.2998249301564473e-06  3.6042480665491556e-07  9.2355824670405991e-07  2.7835466344835220e-07  4.7289827726894064e-07  9.8836968108797640e-07  4.3574058918920649e-06  8.9555301235879116e-07  3.7337539085282405e-06  3.6879402043351866e-06  1.6481757301826161e-07  1.6196860918482552e-07  4.0137630880923447e-06  3.9363285040415003e-06  5.4311267204293870e-07  3.8982975089142377e-06  1.4673291491809528e-07  1.9141679991757918e-06  1.3450434331112176e-07  2.4167339508729363e-07  5.1084992290009859e-07  6.3391058532169596e-07  3.9504485825410649e-06  3.8070377376025129e-06  2.6585805252863579e-06  4.2764534033518813e-06  4.1718701271527374e-06  4.2190951207418527e-06  4.2528136191887678e-06  4.3723868670356217e-06  4.2233402740178623e-06  4.0395276168873105e-06  1.4606067138606974e-06  3.8458656077552207e-06  3.7285501382337167e-06  3.6131128753354144e-06  1.0299399429522145e-06  2.7702720639443511e-06  3.9174651618621418e-06  3.7955361239042278e-06  4.0046862090194125e-06  4.1484631398787742e-06  4.2865767463751135e-06  3.7024100324150469e-06  1.3266698666713046e-06  3.9338506065803534e-06  1.0436762807110837e-06  4.2076442400002742e-06  2.9250348312922393e-06  1.2842634512765412e-06  4.1065879868623118e-06  4.389916347757693