<?xml version="1.0"?>
<VTKFile type="UnstructuredGrid"  version="0.1"  >
<UnstructuredGrid>
<Piece  NumberOfPoints="2446" NumberOfCells="4585">
<Points>
<DataArray  type="Float64"  NumberOfComponents="3"  format="ascii">0 0.41 0  0 0 0  2.2 0 0  2.2 0.41 0  0.2404508497187474 0.2293892626146237 0  0.25 0.2 0  0.2404508497187474 0.1706107373853764 0  0.2154508497187474 0.1524471741852423 0  0.1845491502812526 0.1524471741852423 0  0.1595491502812526 0.1706107373853764 0  0.15 0.2 0  0.1595491502812526 0.2293892626146237 0  0.1845491502812527 0.2475528258147577 0  0.2154508497187474 0.2475528258147577 0  1.1 0 0  1.1 0.41 0  0 0.205 0  0.55 0 0  0.55 0.41 0  0.275 0 0  0.275 0.41 0  1.65 0.41 0  1.65 0 0  0.8250000000000001 0.41 0  0.8250000000000001 0 0  1.375 0 0  1.375 0.41 0  1.925 0 0  1.925 0.41 0  1.5125 0.205 0  1.7875 0.205 0  0.6875 0.205 0  0.9625000000000001 0.205 0  1.2375 0.205 0  2.2 0.205 0  0.4687002074688797 0.2068568464730291 0  1.99375 0.2152743902439024 0  2.0625 0 0  2.0625 0.41 0  2.2 0.3075 0  0.4125 0 0  0.4125 0.41 0  1.7875 0.41 0  1.375 0.1486128048780488 0  1.5125 0 0  1.7875 0 0  1.5125 0.41 0  0.8250000000000001 0.2613871951219511 0  0.9625000000000001 0.41 0  0.9625000000000001 0 0  0.6875 0.41 0  0.6875 0 0  0.1375 0 0  0.1375 0.41 0  1.2375 0 0  1.1 0.1486128048780487 0  1.2375 0.41 0  1.65 0.1486128048780487 0  1.126715909090909 0.2793064024390244 0  1.676715909090909 0.2793064024390244 0  0.8517159090909092 0.1306935975609756 0  1.348284090909091 0.2793064024390244 0  0.34375 0.3032389320646208 0  1.894702181800738 0.1282910975492754 0  2.092797818199262 0.1282910975492754 0  1.85625 0.3075 0  0.61875 0.3075 0  0.61875 0.1025 0  0.3648540804333487 0.1240075933101478 0  0 0.3075 0  0 0.1025 0  2.099172119769978 0.25625 0  0.48125 0.09238439620688085 0  0.5781001037344399 0.2059284232365146 0  0.48125 0.3196743479159776 0  0.7265881057911006 0.3055240343720796 0  1.99375 0.08395950269330846 0  1.459960956013612 0.3075 0  1.569025960719943 0.2986889805672169 0  0.75625 0.08213100772579164 0  1.03125 0.3278689922742084 0  0.923871252904788 0.3078247185783941 0  1.959375 0.3126371951219512 0  1.749222215368287 0.1025 0  1.275777784631713 0.1025 0  2.2 0.1025 0  1.225938124459196 0.3075 0  1.550777784631713 0.1025 0  1.000777784631713 0.1025 0  1.44375 0.07430640243902442 0  1.16875 0.07430640243902437 0  1.899250267340833 0.2229966846119207 0  0.1020898364287272 0.3140258291809757 0  1.766482954545455 0.2934032012195123 0  0.3405058858996321 0.2119987970531874 0  0.7710785630958338 0.1710968191298857 0  1.046078563095834 0.2389031808701144 0  0.2 0.3400647632937836 0  1.421109702350723 0.2261157654379721 0  0.2800464974185557 0.08982544815605742 0  0.098916018031319 0.09171660955420841 0  2.13125 0 0  2.118919042110979 0.3422084711244843 0  1.30625 0.41 0  0.89375 0 0  1.597888256393107 0.2173787389261347 0  0.20625 0 0  1.829299675393195 0.07400700849299596 0  1.71875 0.41 0  1.16875 0.41 0  2.038220665644273 0.332420740103091 0  0.34375 0 0  0.417496017710808 0.2696595573092803 0  0.2 0.07687845740457822 0  0.9295982307099278 0.1343158415898188 0  0.07390688010811153 0.1697064032433452 0  0.5238366813727013 0.2578302467013575 0  0.05452951551825875 0.25625 0  0.5229630068078351 0.1548816096928243 0  1.452769549894695 0.1548122580621249 0  1.369219062229598 0.07430640243902442 0  1.30625 0 0  0.8504409521244898 0.3356935975609756 0  0.8821881244591965 0.205 0  1.720943423819132 0.1714577452753128 0  1.157188124459196 0.205 0  1.094219062229598 0.07430640243902437 0  1.03125 0 0  1.304056576180868 0.1714577452753128 0  1.67579304192913 0.07430640243902437 0  0.2751941921308361 0.3346083473122598 0  1.209670467133757 0.1362100266964769 0  1.025335513626278 0.1700681449722324 0  0.7562500000000001 0.41 0  1.58125 0 0  0.7567170593862014 0.2409196493502535 0  0.6926714215682891 0.1272249611432207 0  0.4139715849905988 0.3397932387114203 0  0.9840787304190477 0.2717749043358119 0  0.06875000000000001 0.41 0  0 0.35875 0  0.9281250000000001 0.06276726142697993 0  0.5507396469029935 0.3219409231578227 0  0.5504468037989405 0.09136885600634273 0  1.58125 0.41 0  1.631724228912893 0.3381867502687533 0  1.825608881788174 0.14499488549201 0  1.85625 0 0  1.44375 0 0  1.44375 0.41 0  1.85625 0.41 0  2.13125 0.41 0  0.7562500000000001 0 0  0.89375 0.41 0  0.4812500000000001 0 0  0.34375 0.41 0  0.4812500000000001 0.41 0  0.20625 0.41 0  0.06875000000000001 0 0  1.16875 0 0  0.61875 0 0  0.61875 0.41 0  1.03125 0.41 0  1.71875 0 0  1.99375 0 0  1.99375 0.41 0  1.340625 0.3489494290853124 0  1.134375 0.3489494290853123 0  1.700180620188976 0.3438659752031281 0  2.135782184673599 0.07126652247502523 0  1.668441847249787 0.2129203728327609 0  1.295782514339747 0.2378437748815763 0  0.8233075729931248 0.06842334294821524 0  1.409375 0.3520314716057996 0  0.403505597322782 0.182067236678212 0  0.378125 0.05794951541303489 0  0.3043468223249023 0.1518321115979534 0  2.129248544730567 0.1906135162504124 0  2.060771381434487 0.1989445750470348 0  2.013252586573865 0.1496169464686054 0  1.942766402200229 0.1734448904596831 0  1.895522487186454 0.06076163953489683 0  2.069553871656643 0.06605731020975725 0  1.274680914880868 0.3520219391081363 0  1.614713220494657 0.09473434380863296 0  0.7899021319497519 0.3149123934144827 0  0.69518737419149 0.0634051089053758 0  0.2971740475496061 0.2592172353407536 0  1.72990325744076 0.2380068107952482 0  1.356580098625191 0.2120393231351682 0  2.034370752044885 0.2668681600792073 0  1.51768709249349 0.3426260931494756 0  1.561883724969884 0.1650446847858835 0  1.197344062229598 0.2523725417393646 0  1.804085235518364 0.3468178408964637 0  1.817887819205233 0.2589243285818559 0  1.905897727272727 0.3485060975609756 0  0.6719798073392919 0.2688965171178177 0  0 0.05125 0  0.653125 0.35875 0  0.6396896119294488 0.1627615407790282 0  0.4274150154087412 0.1242548552168279 0  1.192836486056382 0.3562350748565544 0  0.8279124365364005 0.183856489168822 0  1.097485222388854 0.2083571153401724 0  1.28257088594801 0.2944411014911587 0  1.474860187679412 0.2504218616229368 0  1.406767003493824 0.2829282258560709 0  0.446875 0.04619219810344041 0  0.515625 0.04585361801037557 0  0.592043440706648 0.05125 0  1.845656689180403 0.1998310418452388 0  2.144958525570388 0.2909790873294231 0  0.6171090763650112 0.2492366900333857 0  2.2 0.15375 0  0.5145586920831158 0.3648371739579888 0  1.57794966442982 0.3540357145964566 0  0.721875 0.3633107922168974 0  0.0496154796471391 0.333125 0  0.5843750000000001 0.3662560860076676 0  0.5810878747760798 0.1474002776121195 0  1.508991196088596 0.1421783375065625 0  0.8840670607017558 0.2640994375393898 0  0.09776612425612034 0.2204896805326566 0  1.50436820029908 0.06143401634903343 0  1.223857000523521 0.0823554862453532 0  1.153316824384777 0.1289850171317837 0  2.148922302309752 0.1258841779285271 0  0.309375 0.04312325590431198 0  1.621993280276081 0.2841214267927899 0  1.550118654119087 0.2461998729100966 0  1.327182649291491 0.1216967252533594 0  1.051977450479407 0.1221382572915816 0  1.753125 0.04556020050186112 0  1.271875 0.04556020050186116 0  0.9816084133102366 0.05126138213476004 0  1.039051841454368 0.0572224914831029 0  0.9719230514536006 0.3480477870845102 0  1.94956388244759 0.1180512551534177 0  1.949997712993411 0.04965831614304109 0  1.771961817615021 0.1530278789497521 0  1.909246823951428 0.2812757146784527 0  0.2459536687882397 0.04668633953831142 0  1.948575539857022 0.2445328248721197 0  1.697271520964565 0.1233917627620729 0  0.7964897648514618 0.1211426571931604 0  1.065625 0.3689344961371042 0  1.085849084308977 0.3170853572226867 0  0.4702981435440001 0.260434880697798 0  1.577403511714593 0.05463601888079143 0  0.05622663515370135 0.05493816910862376 0  0.3267207591099919 0.3566194660323104 0  0.9003051618565143 0.3564049499960621 0  1.751571320346033 0.3651102912045228 0  0.1583785085108421 0.2994699345738728 0  0.1455283439499995 0.3542795598723423 0  2.2 0.35875 0  0.2347662494194072 0.298325008655211 0  0.1527284455616188 0.1065771775690181 0  0.1382139529076665 0.05427454456341477 0  0.8749341636311069 0.05110114999892954 0  0.643661668713109 0.05693499781019222 0  1.466879772203159 0.3611261772912453 0  1.990280163552011 0.3564754268533217 0  1.17471064520912 0.2990917256188288 0  0.5202693090594349 0.206382495511728 0  0 0.25625 0  2.2 0.25625 0  2.2 0.05125 0  0 0.15375 0  1.853978576207987 0.35875 0  0.9787513713939683 0.1487523696999336 0  0.240625 0.3722153812029779 0  1.515638456102889 0.2882700110184686 0  0.09048297387599738 0.3637717362208066 0  2.150453692751374 0.2387066338105111 0  1.323782677156475 0.04897634338873398 0  0.8074131292871642 0.3624701995505916 0  1.409375 0.03715320121951221 0  1.406484531114799 0.1087852750766809 0  1.134375 0.03715320121951218 0  1.627401732573545 0.04552157221025036 0  0.1170173172005315 0.1427610859166811 0  2.045405893604797 0.1105340662939892 0  1.255408269734577 0.1577307500159216 0  2.028125 0.03707597992059326 0  0.4743610090857199 0.1421513964721819 0  0.9354010469015898 0.250631300585664 0  0.04420832937638274 0.128125 0  0.8922386349349938 0.0992956419364831 0  0.1197849154434487 0.2663398672460083 0  1.248258025468107 0.2565907092181813 0  0.3746885856929528 0.370723531618974 0  1.203125 0.0366132337404304 0  0.5724622277005015 0.2751253816079333 0  0.3365425205162783 0.08395777655057959 0  2.072662025974815 0.2975086504196739 0  0.4581080832182547 0.3648371739579888 0  0.3874522734668214 0.2295447548840689 0  0.7827853612484443 0.04106550386289586 0  1.887722846421017 0.1760882698830035 0  1.472640588990488 0.1118278026240017 0  1.865937103925594 0.2604137786483804 0  1.463913572748262 0.2030442564990043 0  1.376426316059077 0.3186741374914345 0  0.6641993820150034 0.3141688596240831 0  0.2943117490824315 0.2130987422685822 0  0.3478153998082709 0.1666571081082676 0  0.3427990510599805 0.2575950027870776 0  0.7997118993855807 0.2216171933356366 0  
[...]
<PointData  Scalars="f_9-2"> 
<DataArray  type="Float64"  Name="f_9-2"  format="ascii">2.7561108390911546e-07  3.7241325058269617e-07  4.0573187461741577e-06  4.0660706667632961e-06  2.2314982404655366e-06  2.8662928651356416e-06  2.2131625843837687e-06  1.0736550456491752e-06  5.8935098700268986e-07  4.2828509940762443e-07  3.8020078199337515e-07  4.3572366160786163e-07  6.0911567455547925e-07  1.0896270246014185e-06  4.9140040950739138e-06  4.7182392261415483e-06  2.9964119186684042e-07  2.0348629965720791e-06  1.9995988090592928e-06  1.5803346362695663e-06  1.3762460981072297e-06  4.4604594516572225e-06  4.4841296320200881e-06  3.9829873219846731e-06  4.2972422690681244e-06  4.6992145167722378e-06  4.6996174491387312e-06  4.2719191690562397e-06  4.2281760823069790e-06  4.8650138728490213e-06  4.6764047700386687e-06  3.2178170008676317e-06  4.4941141014889778e-06  4.9595152999686527e-06  4.3777107137445528e-06  2.4833725366208452e-06  4.5176756048797572e-06  4.1416434441853062e-06  4.1418253493083338e-06  4.3149020566768681e-06  1.6915512711030511e-06  1.5852669058979384e-06  4.3597743538508325e-06  4.9056062256026725e-06  4.6147066276154978e-06  4.3593195198415121e-06  4.5553455679489904e-06  4.0534995681873522e-06  4.6944686527397155e-06  4.7223758872454077e-06  2.6711567382298880e-06  3.5453626744398497e-06  9.8825837394716877e-07  7.1742905199113976e-07  4.8320429016796052e-06  4.9460123736761530e-06  4.7600580210288758e-06  4.7968550752535741e-06  4.9716615613474537e-06  4.6166864673941663e-06  4.3923964434097407e-06  4.8544676895873444e-06  1.6941056878068194e-06  4.4922391099228875e-06  4.4235998931698663e-06  4.5579578939948909e-06  3.8383511965288526e-06  2.4302254382670146e-06  1.8210802077593959e-06  2.7201155202026122e-07  3.1826364979555383e-07  4.3717843710470183e-06  2.6203851850818249e-06  3.7283511303402041e-06  1.7358881290823083e-06  3.9994989455696367e-06  4.4155928359661809e-06  4.8559058528715452e-06  4.7072950129554760e-06  4.4972010775707853e-06  4.9624252901254314e-06  4.6880268061240174e-06  4.3739399695845097e-06  4.5747160359741102e-06  4.9726666465885212e-06  4.1915391657813770e-06  4.8199064035213613e-06  4.7767633511765931e-06  4.7907116833676596e-06  4.7214351494669622e-06  4.9801023638906901e-06  4.5981773461978475e-06  6.7881383820783179e-07  4.6302566106409586e-06  3.2609413775362096e-06  4.3766015331205625e-06  4.8887962002359320e-06  1.3429382416632414e-06  4.8976540687808250e-06  1.4381059232291013e-06  7.0167686174258798e-07  4.0808558684702318e-06  4.2242199725064047e-06  4.7440414405608470e-06  4.4710270602257414e-06  4.8131899700899462e-06  1.3855242593951171e-06  4.4113863846868891e-06  4.4191008210209904e-06  4.7442038392564522e-06  4.2484271884152408e-06  1.6531105318721681e-06  2.1157406321834029e-06  1.3550376625093383e-06  4.5121383243151361e-06  3.0996490330379144e-07  2.3482306959412936e-06  2.9289302189683374e-07  3.5106583534210081e-06  4.8241702209727855e-06  4.7958076253310483e-06  4.7580817768489847e-06  3.9248565703825880e-06  4.1902161640666876e-06  4.7349917348752775e-06  4.9623819934012475e-06  4.9481423195502775e-06  4.8868972499746794e-06  4.9467787580305855e-06  4.6251851633638776e-06  1.5045070587805023e-06  5.0002143699759979e-06  4.8402205560895224e-06  3.2463882057421680e-06  4.5588758770837260e-06  4.0841789284369229e-06  3.2876493467998136e-06  1.6330525860476482e-06  4.8450265182139114e-06  3.6348052141021388e-07  2.6715658168249230e-07  4.6503004786900460e-06  2.4134986275714411e-06  2.5949793145748422e-06  4.4985715645658961e-06  4.5382913919528511e-06  4.5382462172266316e-06  4.3184899709642683e-06  4.6551280420051851e-06  4.6326676214053356e-06  4.2943333627949237e-06  4.0971074721666784e-06  4.0697756257578289e-06  4.5146103210663494e-06  1.7644553651809465e-06  1.5119625687997940e-06  1.7113442061499524e-06  1.1158841546092967e-06  5.1767303878143804e-07  4.8874283948115273e-06  2.7311868670687267e-06  2.3439835402737936e-06  4.7138108619629553e-06  4.4121346954504257e-06  4.2072698325985094e-06  4.1823090410109884e-06  4.8029553108752776e-06  4.8241305662285856e-06  4.5212187637528772e-06  4.1867604780922227e-06  4.7285905732950516e-06  4.8699259403284347e-06  4.6342118594199161e-06  4.7815454681214748e-06  3.2743136178728411e-06  1.6793756572003634e-06  2.1051990050711904e-06  4.4339075424009190e-06  4.4633145571153874e-06  4.5204488666375396e-06  4.5523223214118304e-06  4.3773577261204616e-06  4.2707656282679378e-06  4.7863754826755488e-06  4.7514134985671508e-06  3.5965358552340783e-06  3.5660093679559745e-06  2.2602872294743892e-06  4.6816671423194034e-06  4.8943555294696103e-06  4.3723314467601549e-06  4.6795067177533396e-06  4.8383336601804490e-06  4.9457113806010208e-06  4.4830048281691078e-06  4.6567379479255651e-06  4.3548547195018359e-06  3.7974892971218072e-06  3.4424333515187692e-07  3.0014454444759926e-06  3.0325344914086651e-06  2.7549523360083740e-06  4.7733676804057470e-06  4.4537881890406075e-06  4.9399321299398168e-06  4.8210768386789311e-06  4.8957548183232007e-06  4.8829459552911848e-06  1.7823084041557194e-06  1.9425690196935449e-06  2.1928485900406905e-06  4.6066944231974435e-06  4.3410036859790407e-06  3.8921617691897882e-06  4.3036595926065018e-06  1.8364177725334347e-06  4.5571253423490925e-06  3.0273109036965517e-06  2.9577639282298198e-07  2.4049283598888401e-06  3.5201879349323510e-06  4.8033887181450141e-06  4.1404175246583138e-06  3.1945680485815420e-07  4.6944260302166034e-06  4.9821148745878795e-06  4.9917638132918809e-06  4.3196134532182140e-06  1.6081123804657107e-06  4.6444662544013784e-06  4.8499216975954398e-06  4.9407339210320057e-06  4.8833404837923484e-06  4.4285447671040338e-06  4.8689723863156772e-06  4.7288818220186983e-06  4.8706950074852465e-06  4.8650988436161601e-06  4.5004188885889048e-06  4.3340634380178744e-06  4.6463207839799286e-06  4.5541644470538644e-06  1.5080232647160144e-06  4.5519463095513064e-06  4.7251375216928322e-06  4.5886048313598914e-06  4.8145601996582240e-06  4.9653952642509866e-06  1.9991326378794635e-06  4.6614870058538079e-06  4.1365434526621445e-07  1.5325773978470131e-06  4.5281099307262563e-06  4.4611564178041048e-06  1.1071733655754323e-06  9.3360491667842012e-07  4.1571946858231575e-06  1.2420440809829137e-06  9.9082448784915466e-07  1.0582428005942909e-06  4.5862090726036060e-06  2.7202659882160128e-06  4.6995443876327987e-06  4.2348311906954576e-06  4.8994633243841580e-06  2.7482258200807687e-06  2.8826795522118113e-07  4.3824276593580309e-06  4.0969559632119449e-06  3.0896899745714946e-07  4.3931874401641218e-06  4.7086054089462894e-06  1.3198164794130897e-06  4.8368944876789344e-06  4.5468144434814075e-07  4.4005539338437383e-06  4.8103764311644966e-06  3.5660462079691711e-06  4.6980697699700178e-06  4.8041999191060002e-06  4.9295019476297668e-06  4.5932158623650124e-06  5.1589253404324477e-07  4.4453714152851901e-06  4.9847037991528189e-06  4.2312433005724852e-06  3.4849407550848761e-06  4.5182234519679865e-06  3.2383985621765308e-07  4.5859516590867691e-06  6.1734823215692074e-07  4.8782622768912713e-06  1.5589911114646610e-06  4.9066155505750816e-06  3.3800367650890148e-06  1.6009295940280906e-06  4.3046766850979700e-06  1.6430724319200877e-06  3.0690572355008044e-06  4.3764821837744183e-06  4.5512217402303271e-06  4.7622139973656003e-06  4.6269014090731295e-06  4.8745475909779933e-06  4.8523705074638862e-06  3.9920042856299886e-06  3.1351488856157329e-06  2.4504999080910511e-06  2.6333331521905742e-06  4.3526196454641093e-06  4.6298114681876955e-06  4.6763907682732920e-06  4.1422534696787629e-06  3.6841735714073942e-06  4.2912789718236658e-06  4.7279644890208291e-06  4.9311625572133463e-06  4.9565326594667548e-06  4.9043183608444591e-06  1.4382114983335472e-06  4.1620225635885735e-06  4.8202327828042872e-06  3.4467757401991242e-06  3.6524989972835716e-06  4.6029259709393167e-06  2.9848537736699283e-07  4.4514710878314851e-06  4.2491057505966191e-06  4.1204807221302465e-06  4.1842822879570283e-06  6.7088295497093354e-07  4.0595359756221224e-06  4.4784216947261761e-06  4.5182879376667794e-06  4.3300163469957201e-06  1.2142997324899593e-06  4.8812443031659764e-06  4.9799746478039366e-06  4.6359212385276864e-06  4.7990281879528883e-06  4.5242504080578690e-06  4.3035126224347293e-06  4.4458128774286112e-06  4.4832201778009640e-06  4.7131255907376324e-06  4.8292397679800165e-06  4.0895449088928043e-06  4.1230533078526493e-06  2.9272985148628425e-07  2.8549054934062259e-06  3.2142443966971172e-06  4.2855255973444429e-06  4.2715083911189151e-06  4.7154807855267622e-06  4.3855671121015407e-06  4.4363344165226986e-06  4.5883310821268250e-06  4.2519084155219176e-06  2.8119485931028646e-06  1.0606290838529414e-06  4.3253527870548599e-06  4.9216016922835335e-06  4.5709108859768926e-06  4.4857672351381453e-06  4.7270079337030235e-06  1.8842909878723242e-06  9.3256982588688637e-07  4.4912256084151012e-06  4.6393774090532332e-06  4.8574858311624275e-06  4.7701170289824894e-06  4.4614167023295881e-06  4.6708551857723229e-06  1.3172454597656419e-06  4.9119047242126215e-06  3.2003272557864595e-06  4.7624623740981379e-06  4.1382885501633232e-06  1.7746315408068660e-06  1.7479517496029719e-06  3.9031121915525634e-06  4.9824180382393058e-06  4.1366257971543275e-06  4.9606579916686482e-06  4.9642419900289413e-06  3.3028186971269344e-07  4.3807589707260373e-06  4.8330422110159158e-06  4.2918522290635637e-06  3.8857345222811578e-06  4.2591542712370189e-06  4.3537992569670461e-06  4.2976247849781759e-06  4.4297457249315757e-06  4.7600495415492418e-06  4.6026307073964846e-06  4.5215483913907174e-06  4.7485651652053779e-06  4.0179387435642291e-07  4.3211250123313725e-06  1.5161171593817354e-06  2.7961466073514171e-07  4.1864097278049071e-06  4.8539600453690271e-06  3.0268223709282503e-06  4.9515704652640846e-06  3.6269922309726450e-07  2.0007901605106862e-06  1.2256268548783939e-06  4.4607451418390256e-06  3.9223642386671054e-06  4.7132261854574711e-06  3.3899860106675149e-06  4.8354564416826065e-06  3.0611150083784923e-07  4.9628213605731810e-06  4.5811803224941606e-06  4.3502382019904122e-06  4.8940735573004349e-06  1.4191889824683558e-06  1.0485867844308684e-06  4.8814709878783932e-06  1.4552188402189078e-06  3.6322300951673603e-06  2.8866801615779706e-06  3.4376833620641642e-06  3.5988247988030365e-06  1.6178693951427749e-06  1.9115577587049926e-06  3.1303534058618268e-06  4.2409646559413542e-06  2.7889459727673766e-07  4.6352378764768684e-06  4.7077748800784365e-06  4.9298591832590310e-06  4.6907462435546058e-06  4.9738481424294127e-06  4.8679196926487039e-06  4.7408991192766601e-06  4.9449693724552941e-06  4.7674366662381121e-06  4.9379508732581739e-06  4.5358464069197675e-06  4.2091853576554120e-07  1.6029078088593218e-06  5.0025181872945785e-06  4.9990571625089350e-06  4.1447588253001629e-07  1.4541858364604853e-06  4.6037065087674940e-06  4.5585859010122052e-06  2.3562221413236070e-06  9.2065192332386825e-07  1.5526091906038992e-06  3.3366094760568561e-07  2.2207655995360819e-06  4.4931579363924951e-06  4.8338084757668729e-06  4.5730640245794953e-06  2.7130256101682293e-06  4.3384424341949364e-06  3.4090190769494486e-06  4.4018922557294704e-06  4.4489967906622236e-06  4.9118035120184629e-06  2.7056891612233043e-06  4.3251831218555971e-06  4.4128417088400657e-06  4.4076673693436784e-06  4.5518711082400892e-06  4.7043866723827811e-06  4.8298070892189890e-06  4.8241533227172143e-06  4.6810476730908436e-06  3.2972031350424050e-06  4.7445183442343652e-06  4.8580254197125867e-06  4.6485961959812425e-06  4.5440280943989903e-06  4.3747444166161716e-06  4.4590002694198946e-06  4.2031023725263456e-06  4.3117547797382285e-06  4.8332821666450646e-06  4.5611529502160995e-06  4.1485907060816924e-06  4.1435502987322773e-06  4.9683024299125651e-06  4.3247092404480414e-06  4.4889423504855921e-06  4.6233175217924626e-06  3.7483313593966826e-06  1.6406169009948410e-06  1.5969400598202541e-06  4.6790151261402623e-06  2.8648720704283196e-06  4.8748991819908007e-06  4.5333029034335389e-06  4.7559317413731454e-06  4.7303910441301692e-06  4.7709537724285268e-06  4.7227980241527221e-06  4.7546911149617112e-06  4.9176351394818167e-06  4.8783847809936899e-06  4.4151631897410317e-06  4.7554905697508308e-06  3.6199544117076032e-06  2.1320313167213055e-06  3.2452216910802762e-06  2.6185547623080970e-06  1.7057969673460023e-06  1.6718298398030016e-06  1.9016659885923611e-06  2.2988385716465794e-06  3.0140968175791379e-06  3.1492433603984469e-06  4.5482862097024652e-06  4.8782751073274756e-06  4.6266532830031765e-06  2.4624621941917454e-06  3.4750320054700822e-06  2.7744635106349014e-06  4.8571553864474812e-06  4.4397383807780776e-06  4.5365150093312621e-06  4.5054730378929013e-06  4.4688451871919436e-06  4.7553063232220423e-06  4.7533803158743751e-06  4.9180633361227033e-06  1.8067853917397468e-06  4.7269649364088853e-06  4.9133552955528969e-06  4.0632266278058905e-06  4.1061100860564885e-06  4.9037634324369071e-06  4.6765693314753905e-06  4.5934333666658061e-06  4.3927977672470200e-06  4.7144282276200664e-06  4.3852214562663079e-06  2.9152205548526508e-06  4.6663310075141931e-06  3.8600188741253422e-06  4.0771868560233953e-06  4.5949616430959679e-06  1.5518874366754396e-06  1.7171043636885121e-06  1.6305743487415399e-06  7.3098745682348214e-07  1.2659707189035691e-06  1.5042129423361654e-06  5.0877094167031143e-07  3.1640750625862161e-06  4.2060035020982595e-06  1.6264702514820242e-06  2.1718019007035399e-06  1.8351099093468647e-06  2.3380174770106718e-06  1.8558458070988893e-06  2.4750479775259701e-06  4.8232525690250148e-06  4.8604221887994658e-06  4.5218285534748375e-06  4.2409458116192300e-06  4.7953995314897121e-06  4.1738445175572589e-06  4.2022167951704495e-06  4.4563531476680657e-06  4.4830851427196172e-06  4.6209509217811631e-06  4.7890911722636223e-06  4.9812219805689770e-06  1.7494016542738123e-06  4.8621862222421760e-06  4.8394975356133417e-06  4.8284723586706590e-06  4.7259999064347901e-06  4.8007108060608111e-06  4.3113697194293151e-06  6.8288468811132967e-07  4.8014420067647890e-06  4.6895896731778643e-06  4.6526186452491157e-06  4.4901978674845450e-06  4.7170924167530721e-06  1.4039720144935245e-06  3.4283835204421953e-06  4.4698559625743081e-06  4.6706792250024720e-06  4.9030306221264881e-06  4.4441600341712288e-06  4.6090174481843788e-06  3.6606240423919915e-06  4.9652309178040534e-06  4.7613110599669059e-06  2.9440989879375452e-07  1.3878998391048149e-06  4.5769067241541113e-06  2.5632155489339571e-06  4.1841945711905193e-06  4.3408204702599696e-06  4.8470396956623501e-06  2.7839175507661164e-06  4.9170971929342798e-06  3.7749849541991863e-07  4.7891780580368634e-06  4.5742342036060502e-06  4.5306678532154537e-06  6.2774358228134163e-07  4.2488538275825236e-06  1.2821023932559171e-06  4.0375374743342350e-06  3.9891381603698739e-06  4.2439236094406745e-06  4.3072582183940788e-06  4.3828670427322927e-06  4.9090137486143168e-06  4.5048636343562204e-06  4.5879543267393078e-06  4.6405074609399036e-06  4.4194918357148009e-06  4.3774462424129036e-06  2.3985626000656587e-06  4.4818750732367312e-06  4.8169988545946901e-06  4.5220788613123364e-06  4.7961535674826281e-06  4.7502708688424241e-06  4.6764256400799265e-06  6.0370750238564514e-07  4.2704838339289810e-06  3.0608670421173351e-06  4.5288563312755907e-06  2.5914012018441809e-06  1.4999096289522230e-06  1.1287617674493487e-06  2.9344741232799714e-06  4.5061728037088580e-06  4.9760789339439414e-06  4.8443568597341803e-06  1.5549852194780025e-06  4.8771058852107930e-06  4.7096913717111334e-06  3.7135987004720704e-06  3.7942212525248716e-06  4.3044384227201843e-06  4.0378441059982265e-06  4.3311709501687425e-06  4.9836507080774897e-06  4.3935172933979516e-06  4.5997879955999282e-06  4.6628157303719658e-06  4.9089828334326041e-06  4.8216400734984574e-06  4.0800278865571039e-07  4.6610918849567745e-06  2.5883682202707807e-06  4.9117040269551863e-06  4.8794084158528707e-06  4.9675753610107611e-06  4.7724552994052818e-06  4.7102977938789716e-06  4.6501580501505593e-06  4.6235059237577026e-06  4.4418223286272847e-06  4.6436133619705528e-06  4.2086128983757597e-06  3.6298260632692334e-07  3.7516767128345514e-07  4.8172906634254309e-06  4.4387835446285181e-06  4.8112369488753547e-06  5.3408939256439452e-07  1.6656734515486139e-06  4.6217061205057281e-06  1.4420815297911037e-06  1.2210081927039853e-06  1.7986532271468771e-06  4.5031398693243846e-06  2.2967528628016867e-06  4.7494581883634588e-06  1.5427059119963736e-06  4.9511831597637490e-06  4.3360659337774118e-06  4.5938505858155885e-06  2.9216008725319381e-07  1.8820725234993174e-06  1.6642184593397331e-06  4.2282476368202676e-06  3.8579451073164178e-06  4.3690794289559069e-06  4.9344561155389528e-06  4.7965078159363287e-06  4.5805487414536286e-06  4.3879906140802820e-06  4.9750424334765415e-06  2.2462775262111187e-06  4.9365664427683422e-06  4.9514587038375298e-06  4.3800010809454625e-06  4.6441892617662000e-06  3.1139840666624414e-06  4.1341140266107631e-06  4.8457018056863641e-06  4.3514297631723247e-06  4.7920448288224745e-06  7.3465907493690157e-07  1.0077920919506847e-06  4.6070228564510129e-06  4.3717343744763378e-06  4.8971337249049353e-06  4.8947252573144122e-06  4.8868473930658422e-06  4.8840338738471995e-06  4.6733212189206650e-06  4.4571157531979642e-06  4.3549158306545909e-06  4.0563470140986024e-06  4.9239286401969624e-06  4.2416393190229268e-06  4.3078305872423875e-06  4.8720680978820604e-06  4.8939846992727630e-06  3.3510797608197630e-06  4.9367310879952005e-06  4.5905097228979030e-06  4.6847693074156977e-06  3.7402647276860493e-06  3.9249274683600174e-06  3.5526576546929541e-06  4.2469217867833750e-06  1.3098227314627658e-06  4.8288850905722906e-06  4.8445326157163893e-06  3.8894857318835500e-06  4.7645345361360138e-06  3.0317963124013887e-06  4.5012032451769892e-06  3.9817181866065070e-06  4.9219439969111671e-06  2.3157220620333048e-06  2.8380314302775935e-06  4.1885030533014622e-06  4.8920226780755446e-06  4.2768357496513017e-06  2.1056425118441678e-06  4.8038520959757204e-06  4.5795343131699379e-06  2.0645348477488010e-06  4.5301466524360351e-06  4.5911379639834821e-06  2.0733306906348333e-06  9.3711377788808069e-07  4.3980389952471085e-06  4.2832779948071222e-06  4.3732845653838007e-06  4.3200686593049033e-06  1.9224076096051025e-06  4.6192387106001938e-06  4.2980251327408001e-06  4.8846625723496122e-06  4.8019096804625834e-06  4.4130883409563864e-06  4.3820350951783509e-06  4.7982074572973233e-06  3.4839469959320790e-06  4.9976196806256546e-06  4.9985906147408268e-06  1.5548204910138281e-06  4.9152277977118845e-06  4.7827523958786531e-06  4.9767193338194001e-06  4.9291541687259487e-06  3.8528120481308127e-06  1.7149507486771191e-06  1.7030631993395959e-06  4.9146661722341854e-06  6.0472704138947840e-07  1.4389088081247898e-06  4.8900172061346286e-07  8.2276258749566082e-07  1.5565967205328979e-06  4.9596196894545819e-06  1.4888791974880137e-06  4.2127849749588629e-06  4.3485848021211824e-06  3.0113761428841110e-07  2.9801785198533051e-07  4.6207194742914240e-06  4.5310325685550631e-06  8.5052114645289634e-07  4.4828533022451331e-06  2.8259960589458511e-07  2.6217500803313366e-06  2.6690241100324048e-07  4.3224709541412666e-07  7.9627492968296765e-07  9.9516749079098037e-07  4.5290785790663217e-06  4.4077811467878351e-06  3.0952070645163524e-06  4.8737757664840355e-06  4.7880897173894368e-06  4.8286235308827594e-06  4.8411875459628608e-06  4.9812016743582905e-06  4.8195311166072947e-06  4.6381568720267859e-06  2.1043858263363180e-06  4.4579911979271441e-06  4.3636904405574335e-06  4.2869786645599255e-06  1.6364129980865298e-06  3.2455687935164005e-06  4.5102959182010869e-06  4.4436085335614444e-06  4.6211384331075915e-06  4.7546152108539956e-06  4.8806092446148252e-06  4.3172953989436876e-06  1.9167285516485953e-06  4.5163369984137223e-06  1.6361591730303716e-06  4.8060847666345975e-06  3.2948464149567163e-06  1.9228862359762681e-06  4.6900093241987465e-06  5.003653184059954