<?xml version="1.0"?>
<VTKFile type="UnstructuredGrid"  version="0.1"  >
<UnstructuredGrid>
<Piece  NumberOfPoints="2446" NumberOfCells="4585">
<Points>
<DataArray  type="Float64"  NumberOfComponents="3"  format="ascii">0 0.41 0  0 0 0  2.2 0 0  2.2 0.41 0  0.2404508497187474 0.2293892626146237 0  0.25 0.2 0  0.2404508497187474 0.1706107373853764 0  0.2154508497187474 0.1524471741852423 0  0.1845491502812526 0.1524471741852423 0  0.1595491502812526 0.1706107373853764 0  0.15 0.2 0  0.1595491502812526 0.2293892626146237 0  0.1845491502812527 0.2475528258147577 0  0.2154508497187474 0.2475528258147577 0  1.1 0 0  1.1 0.41 0  0 0.205 0  0.55 0 0  0.55 0.41 0  0.275 0 0  0.275 0.41 0  1.65 0.41 0  1.65 0 0  0.8250000000000001 0.41 0  0.8250000000000001 0 0  1.375 0 0  1.375 0.41 0  1.925 0 0  1.925 0.41 0  1.5125 0.205 0  1.7875 0.205 0  0.6875 0.205 0  0.9625000000000001 0.205 0  1.2375 0.205 0  2.2 0.205 0  0.4687002074688797 0.2068568464730291 0  1.99375 0.2152743902439024 0  2.0625 0 0  2.0625 0.41 0  2.2 0.3075 0  0.4125 0 0  0.4125 0.41 0  1.7875 0.41 0  1.375 0.1486128048780488 0  1.5125 0 0  1.7875 0 0  1.5125 0.41 0  0.8250000000000001 0.2613871951219511 0  0.9625000000000001 0.41 0  0.9625000000000001 0 0  0.6875 0.41 0  0.6875 0 0  0.1375 0 0  0.1375 0.41 0  1.2375 0 0  1.1 0.1486128048780487 0  1.2375 0.41 0  1.65 0.1486128048780487 0  1.126715909090909 0.2793064024390244 0  1.676715909090909 0.2793064024390244 0  0.8517159090909092 0.1306935975609756 0  1.348284090909091 0.2793064024390244 0  0.34375 0.3032389320646208 0  1.894702181800738 0.1282910975492754 0  2.092797818199262 0.1282910975492754 0  1.85625 0.3075 0  0.61875 0.3075 0  0.61875 0.1025 0  0.3648540804333487 0.1240075933101478 0  0 0.3075 0  0 0.1025 0  2.099172119769978 0.25625 0  0.48125 0.09238439620688085 0  0.5781001037344399 0.2059284232365146 0  0.48125 0.3196743479159776 0  0.7265881057911006 0.3055240343720796 0  1.99375 0.08395950269330846 0  1.459960956013612 0.3075 0  1.569025960719943 0.2986889805672169 0  0.75625 0.08213100772579164 0  1.03125 0.3278689922742084 0  0.923871252904788 0.3078247185783941 0  1.959375 0.3126371951219512 0  1.749222215368287 0.1025 0  1.275777784631713 0.1025 0  2.2 0.1025 0  1.225938124459196 0.3075 0  1.550777784631713 0.1025 0  1.000777784631713 0.1025 0  1.44375 0.07430640243902442 0  1.16875 0.07430640243902437 0  1.899250267340833 0.2229966846119207 0  0.1020898364287272 0.3140258291809757 0  1.766482954545455 0.2934032012195123 0  0.3405058858996321 0.2119987970531874 0  0.7710785630958338 0.1710968191298857 0  1.046078563095834 0.2389031808701144 0  0.2 0.3400647632937836 0  1.421109702350723 0.2261157654379721 0  0.2800464974185557 0.08982544815605742 0  0.098916018031319 0.09171660955420841 0  2.13125 0 0  2.118919042110979 0.3422084711244843 0  1.30625 0.41 0  0.89375 0 0  1.597888256393107 0.2173787389261347 0  0.20625 0 0  1.829299675393195 0.07400700849299596 0  1.71875 0.41 0  1.16875 0.41 0  2.038220665644273 0.332420740103091 0  0.34375 0 0  0.417496017710808 0.2696595573092803 0  0.2 0.07687845740457822 0  0.9295982307099278 0.1343158415898188 0  0.07390688010811153 0.1697064032433452 0  0.5238366813727013 0.2578302467013575 0  0.05452951551825875 0.25625 0  0.5229630068078351 0.1548816096928243 0  1.452769549894695 0.1548122580621249 0  1.369219062229598 0.07430640243902442 0  1.30625 0 0  0.8504409521244898 0.3356935975609756 0  0.8821881244591965 0.205 0  1.720943423819132 0.1714577452753128 0  1.157188124459196 0.205 0  1.094219062229598 0.07430640243902437 0  1.03125 0 0  1.304056576180868 0.1714577452753128 0  1.67579304192913 0.07430640243902437 0  0.2751941921308361 0.3346083473122598 0  1.209670467133757 0.1362100266964769 0  1.025335513626278 0.1700681449722324 0  0.7562500000000001 0.41 0  1.58125 0 0  0.7567170593862014 0.2409196493502535 0  0.6926714215682891 0.1272249611432207 0  0.4139715849905988 0.3397932387114203 0  0.9840787304190477 0.2717749043358119 0  0.06875000000000001 0.41 0  0 0.35875 0  0.9281250000000001 0.06276726142697993 0  0.5507396469029935 0.3219409231578227 0  0.5504468037989405 0.09136885600634273 0  1.58125 0.41 0  1.631724228912893 0.3381867502687533 0  1.825608881788174 0.14499488549201 0  1.85625 0 0  1.44375 0 0  1.44375 0.41 0  1.85625 0.41 0  2.13125 0.41 0  0.7562500000000001 0 0  0.89375 0.41 0  0.4812500000000001 0 0  0.34375 0.41 0  0.4812500000000001 0.41 0  0.20625 0.41 0  0.06875000000000001 0 0  1.16875 0 0  0.61875 0 0  0.61875 0.41 0  1.03125 0.41 0  1.71875 0 0  1.99375 0 0  1.99375 0.41 0  1.340625 0.3489494290853124 0  1.134375 0.3489494290853123 0  1.700180620188976 0.3438659752031281 0  2.135782184673599 0.07126652247502523 0  1.668441847249787 0.2129203728327609 0  1.295782514339747 0.2378437748815763 0  0.8233075729931248 0.06842334294821524 0  1.409375 0.3520314716057996 0  0.403505597322782 0.182067236678212 0  0.378125 0.05794951541303489 0  0.3043468223249023 0.1518321115979534 0  2.129248544730567 0.1906135162504124 0  2.060771381434487 0.1989445750470348 0  2.013252586573865 0.1496169464686054 0  1.942766402200229 0.1734448904596831 0  1.895522487186454 0.06076163953489683 0  2.069553871656643 0.06605731020975725 0  1.274680914880868 0.3520219391081363 0  1.614713220494657 0.09473434380863296 0  0.7899021319497519 0.3149123934144827 0  0.69518737419149 0.0634051089053758 0  0.2971740475496061 0.2592172353407536 0  1.72990325744076 0.2380068107952482 0  1.356580098625191 0.2120393231351682 0  2.034370752044885 0.2668681600792073 0  1.51768709249349 0.3426260931494756 0  1.561883724969884 0.1650446847858835 0  1.197344062229598 0.2523725417393646 0  1.804085235518364 0.3468178408964637 0  1.817887819205233 0.2589243285818559 0  1.905897727272727 0.3485060975609756 0  0.6719798073392919 0.2688965171178177 0  0 0.05125 0  0.653125 0.35875 0  0.6396896119294488 0.1627615407790282 0  0.4274150154087412 0.1242548552168279 0  1.192836486056382 0.3562350748565544 0  0.8279124365364005 0.183856489168822 0  1.097485222388854 0.2083571153401724 0  1.28257088594801 0.2944411014911587 0  1.474860187679412 0.2504218616229368 0  1.406767003493824 0.2829282258560709 0  0.446875 0.04619219810344041 0  0.515625 0.04585361801037557 0  0.592043440706648 0.05125 0  1.845656689180403 0.1998310418452388 0  2.144958525570388 0.2909790873294231 0  0.6171090763650112 0.2492366900333857 0  2.2 0.15375 0  0.5145586920831158 0.3648371739579888 0  1.57794966442982 0.3540357145964566 0  0.721875 0.3633107922168974 0  0.0496154796471391 0.333125 0  0.5843750000000001 0.3662560860076676 0  0.5810878747760798 0.1474002776121195 0  1.508991196088596 0.1421783375065625 0  0.8840670607017558 0.2640994375393898 0  0.09776612425612034 0.2204896805326566 0  1.50436820029908 0.06143401634903343 0  1.223857000523521 0.0823554862453532 0  1.153316824384777 0.1289850171317837 0  2.148922302309752 0.1258841779285271 0  0.309375 0.04312325590431198 0  1.621993280276081 0.2841214267927899 0  1.550118654119087 0.2461998729100966 0  1.327182649291491 0.1216967252533594 0  1.051977450479407 0.1221382572915816 0  1.753125 0.04556020050186112 0  1.271875 0.04556020050186116 0  0.9816084133102366 0.05126138213476004 0  1.039051841454368 0.0572224914831029 0  0.9719230514536006 0.3480477870845102 0  1.94956388244759 0.1180512551534177 0  1.949997712993411 0.04965831614304109 0  1.771961817615021 0.1530278789497521 0  1.909246823951428 0.2812757146784527 0  0.2459536687882397 0.04668633953831142 0  1.948575539857022 0.2445328248721197 0  1.697271520964565 0.1233917627620729 0  0.7964897648514618 0.1211426571931604 0  1.065625 0.3689344961371042 0  1.085849084308977 0.3170853572226867 0  0.4702981435440001 0.260434880697798 0  1.577403511714593 0.05463601888079143 0  0.05622663515370135 0.05493816910862376 0  0.3267207591099919 0.3566194660323104 0  0.9003051618565143 0.3564049499960621 0  1.751571320346033 0.3651102912045228 0  0.1583785085108421 0.2994699345738728 0  0.1455283439499995 0.3542795598723423 0  2.2 0.35875 0  0.2347662494194072 0.298325008655211 0  0.1527284455616188 0.1065771775690181 0  0.1382139529076665 0.05427454456341477 0  0.8749341636311069 0.05110114999892954 0  0.643661668713109 0.05693499781019222 0  1.466879772203159 0.3611261772912453 0  1.990280163552011 0.3564754268533217 0  1.17471064520912 0.2990917256188288 0  0.5202693090594349 0.206382495511728 0  0 0.25625 0  2.2 0.25625 0  2.2 0.05125 0  0 0.15375 0  1.853978576207987 0.35875 0  0.9787513713939683 0.1487523696999336 0  0.240625 0.3722153812029779 0  1.515638456102889 0.2882700110184686 0  0.09048297387599738 0.3637717362208066 0  2.150453692751374 0.2387066338105111 0  1.323782677156475 0.04897634338873398 0  0.8074131292871642 0.3624701995505916 0  1.409375 0.03715320121951221 0  1.406484531114799 0.1087852750766809 0  1.134375 0.03715320121951218 0  1.627401732573545 0.04552157221025036 0  0.1170173172005315 0.1427610859166811 0  2.045405893604797 0.1105340662939892 0  1.255408269734577 0.1577307500159216 0  2.028125 0.03707597992059326 0  0.4743610090857199 0.1421513964721819 0  0.9354010469015898 0.250631300585664 0  0.04420832937638274 0.128125 0  0.8922386349349938 0.0992956419364831 0  0.1197849154434487 0.2663398672460083 0  1.248258025468107 0.2565907092181813 0  0.3746885856929528 0.370723531618974 0  1.203125 0.0366132337404304 0  0.5724622277005015 0.2751253816079333 0  0.3365425205162783 0.08395777655057959 0  2.072662025974815 0.2975086504196739 0  0.4581080832182547 0.3648371739579888 0  0.3874522734668214 0.2295447548840689 0  0.7827853612484443 0.04106550386289586 0  1.887722846421017 0.1760882698830035 0  1.472640588990488 0.1118278026240017 0  1.865937103925594 0.2604137786483804 0  1.463913572748262 0.2030442564990043 0  1.376426316059077 0.3186741374914345 0  0.6641993820150034 0.3141688596240831 0  0.2943117490824315 0.2130987422685822 0  0.3478153998082709 0.1666571081082676 0  0.3427990510599805 0.2575950027870776 0  0.7997118993855807 0.2216171933356366 0  
[...]
<PointData  Scalars="f_9-2"> 
<DataArray  type="Float64"  Name="f_9-2"  format="ascii">2.9393350875164296e-07  3.9338464591007137e-07  4.1221121749404956e-06  4.1299719059013077e-06  2.1879375337347273e-06  2.9045440797687627e-06  2.3537556151035390e-06  1.1375206248392491e-06  5.9951884321775480e-07  4.4359168480100124e-07  4.0006096147384335e-07  4.6277010604431991e-07  6.5364869168154833e-07  1.1080274507410567e-06  4.9235172798816275e-06  4.8967856751458609e-06  3.1712450532961383e-07  2.1982772965495986e-06  2.0033580744854586e-06  1.6338901952491008e-06  1.4637675170602860e-06  4.5092305502753823e-06  4.5614516640628798e-06  3.7988977102532799e-06  4.5976817637730066e-06  4.7882427767493695e-06  4.7380505966362542e-06  4.3132180810317869e-06  4.3138498303082741e-06  4.9186110941041677e-06  4.7226413796014194e-06  3.7732029084760525e-06  4.7811907468008478e-06  5.0511724730119029e-06  4.4188831180499691e-06  3.1448832708221660e-06  4.5805220597321610e-06  4.2249714048365647e-06  4.1865696652935573e-06  4.2578459474519387e-06  1.7681049196233716e-06  1.6520365696375109e-06  4.4165068631084812e-06  5.0290492552119218e-06  4.6503206901702804e-06  4.4294612080946919e-06  4.6521261931358145e-06  4.2622277105907161e-06  4.6741578970673409e-06  4.8562670952802114e-06  3.1692544007939308e-06  3.1384042165738474e-06  1.0254942714658845e-06  7.6105171707587529e-07  4.9028976077671582e-06  4.9342826516631389e-06  4.8072911489265255e-06  4.7845050738932511e-06  4.9886528282626494e-06  4.7692744919017463e-06  4.6633560490794147e-06  4.9125559929573537e-06  1.7786287911932234e-06  4.5770177608484157e-06  4.4781245133206162e-06  4.5635539589263176e-06  2.4102157600699241e-06  3.9619628397319524e-06  1.8886176781411023e-06  2.8912882248733353e-07  3.3684653465630291e-07  4.4689177539759260e-06  2.1275292050257484e-06  3.0083993760959080e-06  2.0716451319068120e-06  4.4365560099880326e-06  4.3802630650790362e-06  4.8341070298630249e-06  4.8570971656666872e-06  3.5619501223859007e-06  4.8677172813813202e-06  4.4441693375708526e-06  4.5326007102050089e-06  4.7294208456885032e-06  5.0097040476448450e-06  4.3755415706344494e-06  5.0571259058610070e-06  4.7420010831069967e-06  4.9080076519812785e-06  4.8567761102673860e-06  4.9608882674074009e-06  4.6615475507641669e-06  7.1002333106088612e-07  4.5788137750871137e-06  3.2791699041241415e-06  4.1028097369035754e-06  4.7609884080462710e-06  1.4120678654663031e-06  4.9221294126807530e-06  1.4361205068594792e-06  7.3530832191737870e-07  4.1635970290171714e-06  4.2294127887070107e-06  4.7652082744694560e-06  4.8134471869578352e-06  4.8660852763919978e-06  1.4283144020701647e-06  4.5433155243627183e-06  4.4562048463535039e-06  4.8617604379838103e-06  4.3666548655444212e-06  1.7203845834109204e-06  3.1114134182564110e-06  1.3784864992805115e-06  4.9277633770517411e-06  3.2828255078722952e-07  3.0426024337491809e-06  3.1016579394356253e-07  3.6382080245742460e-06  4.9725497164116400e-06  4.9530172228793818e-06  4.8540611006812743e-06  4.3362853436917195e-06  4.4708586790508105e-06  4.8069340320637590e-06  4.9909616851651536e-06  4.9670559451286550e-06  4.8883125912285243e-06  5.0414969372722255e-06  4.6816654679351233e-06  1.6025678156804850e-06  5.0045868240332155e-06  4.7996487318762171e-06  3.5015721738745376e-06  4.6070537623763673e-06  4.3948136548996892e-06  4.0649021103318456e-06  1.8088140835931514e-06  4.6116013786248415e-06  3.8647059713140370e-07  2.8466492525137882e-07  4.9549280427846012e-06  1.9332442837555256e-06  3.3689890022716680e-06  4.5810695884848860e-06  4.6807903801672530e-06  4.7249720291566051e-06  4.3624824802808864e-06  4.7092082982578724e-06  4.7050076955392571e-06  4.3745485832991118e-06  4.1450932273595956e-06  3.9839420998121416e-06  4.2404942768103770e-06  1.9135092055069105e-06  1.5951816885592068e-06  1.7219978070961516e-06  1.1883599528537619e-06  5.4345018044142675e-07  4.9276436075473031e-06  2.5349755362705017e-06  2.5964996472749602e-06  4.8715768405198528e-06  4.5007841420296593e-06  4.2703429862682878e-06  4.2492694329334534e-06  4.7940873553128495e-06  5.0096570176181129e-06  4.5509986686341761e-06  4.3293834382970153e-06  4.8376564844935462e-06  5.0555194141493281e-06  4.5036209353919262e-06  4.7687491124212278e-06  2.4738574412255668e-06  1.7193036456779666e-06  2.6065354014780878e-06  4.4976627180020242e-06  4.5383433871333520e-06  4.4812898383870631e-06  4.5798469948216531e-06  4.4044431036024063e-06  4.3433731668176723e-06  4.8713592791419321e-06  4.7060849719844678e-06  4.5153250870679717e-06  3.1669247794394918e-06  1.9562250732145164e-06  4.7498023412198251e-06  5.0131991671375308e-06  4.5522111406002418e-06  4.7807967121582613e-06  4.8357481502344194e-06  5.0525930808762531e-06  4.4810057521636286e-06  4.6182294592316554e-06  4.4580707498238728e-06  3.5732034028676728e-06  3.6418694525251012e-07  2.9926979631221350e-06  3.4113526545217893e-06  1.8667887541773606e-06  4.9679808018268971e-06  4.1758918881018400e-06  4.8332198232545234e-06  5.0121184363721196e-06  4.8878932972557277e-06  4.8436162339102915e-06  1.8074541519804949e-06  2.1948219086204982e-06  2.8469063227007843e-06  4.6946494038434759e-06  4.3127755635595034e-06  2.4912296700302770e-06  4.4531931196273686e-06  1.7823227713503902e-06  4.7036161195975477e-06  3.7316598538394780e-06  3.1413751862173264e-07  2.1568000401466735e-06  3.6251513569964595e-06  4.8847977285310376e-06  4.5271738944781806e-06  3.3720427940813302e-07  4.7254780376213594e-06  4.9732347922528665e-06  5.0043992572691778e-06  4.4624621939567504e-06  1.6535741306271846e-06  4.8425613996023610e-06  4.8980344290752578e-06  5.0333950344107758e-06  4.8997699590619664e-06  4.5511000267202205e-06  4.9316873769061953e-06  4.9451768457022761e-06  4.9501135011867758e-06  4.5746192853553250e-06  4.4589043087817544e-06  4.3392654775806785e-06  4.7738250894262598e-06  4.6170575095217182e-06  1.5445882248064474e-06  4.6304631957195379e-06  4.7770648407373226e-06  3.9717405665019750e-06  4.9315063747257333e-06  5.0039812002391787e-06  3.3891721720054883e-06  4.6535105070362366e-06  4.3641206286184251e-07  1.6299917406502722e-06  4.1987518439222074e-06  4.4694700687279964e-06  1.1654079724693088e-06  9.7782892585633144e-07  4.1745600102824120e-06  1.3498131964201554e-06  1.0186611447862693e-06  1.1013118294348792e-06  4.8615666391929829e-06  3.0541667484402627e-06  4.7503953519799240e-06  4.3542771987139086e-06  5.0592953248144505e-06  3.6286684519472896e-06  3.0556890387414800e-07  4.3403291199056544e-06  4.2071812410224652e-06  3.2681337623341599e-07  4.4490146868260005e-06  4.8823416588742447e-06  1.3982389403094133e-06  4.8735789924712013e-06  4.7988441674223174e-07  4.4135990754112748e-06  4.9193185781983149e-06  4.0402675244564114e-06  4.8057906203626505e-06  4.9869316542171482e-06  4.9382037123252237e-06  4.6249219462071853e-06  5.4055994880074730e-07  4.4376059600723799e-06  5.0235600804724975e-06  4.2871419386847138e-06  2.4033091335410041e-06  4.6623220710928843e-06  3.4267172049481720e-07  4.9550573828767884e-06  6.4456593583839578e-07  5.0748595695157487e-06  1.6552640600353949e-06  4.9333613536128503e-06  2.2715372115130493e-06  1.6235853213454167e-06  4.4182246393480675e-06  1.7308809609185636e-06  3.3352156989244537e-06  4.1022014725832903e-06  4.6699453684940178e-06  4.8967739079894867e-06  4.6320339078352856e-06  4.9369967667292198e-06  4.8099076486448014e-06  3.3714271552440352e-06  3.0299619485040001e-06  2.8554868024397632e-06  2.4377847149186458e-06  4.1839869625128310e-06  4.6663008936080293e-06  4.6613149691270924e-06  4.2439207571429105e-06  4.2045736812543844e-06  3.8361087975273373e-06  4.7105638937896088e-06  4.7798889102232037e-06  4.8793219027572594e-06  4.9943899227269953e-06  1.5999695558882226e-06  4.2161076320966006e-06  4.7667491778181098e-06  2.9729524689199266e-06  4.2342083176343926e-06  4.5538696039198300e-06  3.1602310683754865e-07  4.5996703278598594e-06  4.2213620306701501e-06  4.1632027101253737e-06  4.2292121428917998e-06  7.0323509020508427e-07  3.4954608111987907e-06  4.5434956274173434e-06  4.7118105117792145e-06  4.5164673356826811e-06  1.2545168140364438e-06  4.9230017452034632e-06  5.0334559826375879e-06  4.6774849502264910e-06  4.8239441080263910e-06  4.6188588852698848e-06  3.9934883095954208e-06  4.5329388495809952e-06  4.5844478466352618e-06  4.8027174989191133e-06  4.8205899946953039e-06  4.1877622961090779e-06  4.1562672137203489e-06  3.1198595145765964e-07  3.7723526323612564e-06  3.8820806454340744e-06  4.7599294675478264e-06  4.7272339216505958e-06  4.8621382720601261e-06  4.4919833716590427e-06  4.5364983995160679e-06  4.6272304999738492e-06  4.3615563935400449e-06  2.9714262836059273e-06  1.0469458362311306e-06  4.3953136904363206e-06  4.9255846996827750e-06  4.5519762058281862e-06  4.5458054429939786e-06  4.9407102958611299e-06  1.7632750708219967e-06  9.9105965760871028e-07  4.4957815318301146e-06  4.4713052567418140e-06  4.8892662895236137e-06  4.8840053961633179e-06  4.5144941413110842e-06  4.7335421305134432e-06  1.3597916971237697e-06  4.8022927309743457e-06  2.2836863599219899e-06  4.8833371461365309e-06  4.3546944446929311e-06  2.0495231917556855e-06  2.3029220973999711e-06  4.3176072775866042e-06  4.9802569105517600e-06  4.2835396862703313e-06  4.9198886416695642e-06  4.9828860057901658e-06  3.4848837784105073e-07  4.4784824471035294e-06  4.8908302465194892e-06  4.3146061090079191e-06  4.5196277293135885e-06  4.3459718349591400e-06  4.4114287201786721e-06  4.3362624675591584e-06  4.4122736477197992e-06  4.7977874911550761e-06  4.7102506944293641e-06  4.5925945347393138e-06  4.7400389004081204e-06  4.2371312383280113e-07  4.4176447875082229e-06  1.6059640025917544e-06  2.9781782496324126e-07  4.2545916023991894e-06  5.0040557408343639e-06  3.8757379396815554e-06  4.6396384331207814e-06  3.8231632032017897e-07  2.4321797814048106e-06  1.3108992260240150e-06  4.6288096025434135e-06  3.5491316466066986e-06  4.4304315363487972e-06  3.6293645751304306e-06  4.9389028734980189e-06  3.2382505408769662e-07  5.0102628493688722e-06  4.7928628881275576e-06  4.3653193977498777e-06  4.8567834116311529e-06  1.5072881809706242e-06  1.1051280729797058e-06  4.8979409282592619e-06  1.5424790980687925e-06  3.0682090465176088e-06  3.2886883351267933e-06  2.9264743106428587e-06  3.5542028877439967e-06  1.7952640335296873e-06  2.6806181971065377e-06  3.1275828090269417e-06  4.0390255536414153e-06  2.9609404613493300e-07  4.6584992373590624e-06  4.7726077635171705e-06  5.0517633334885164e-06  4.7871346014196455e-06  5.0305648299734704e-06  5.0165460551511641e-06  4.8592091777393087e-06  4.9730236637394221e-06  4.8054949769872571e-06  5.0403064267951844e-06  4.4954522114230844e-06  4.4446872953511725e-07  1.7169850780615980e-06  4.9815552677425391e-06  5.0059956776558088e-06  4.3718421933267098e-07  1.5413249666140031e-06  4.7958366374956571e-06  4.6761858267717549e-06  2.7593599086525403e-06  9.2401825480413412e-07  1.4965652284588355e-06  3.5312517368436985e-07  3.5615127355059970e-06  4.5791696914191708e-06  4.8255072840298109e-06  4.6810386401197570e-06  3.9798906983757003e-06  4.3939489084968199e-06  4.3117922001539538e-06  4.5456253556164112e-06  4.5721202654516278e-06  4.9997435810164987e-06  2.9635115816035780e-06  4.3664787564278542e-06  4.4866873268223349e-06  4.4485973736205996e-06  4.5140857697532614e-06  4.6910099479883564e-06  4.7476930356648723e-06  4.8555908329975256e-06  4.8209193490353336e-06  2.9279475100248995e-06  4.9076567623543004e-06  4.9881127871922990e-06  4.9052865290998135e-06  4.8800671045062311e-06  4.7437264154334537e-06  4.6750140553171427e-06  4.3766113902450337e-06  4.4343078750682428e-06  4.9088210642260668e-06  4.6065451320165498e-06  4.1806446686596312e-06  4.4790478479516748e-06  5.0468432847444822e-06  4.6878382537402797e-06  4.6525404966693477e-06  4.7447914922090934e-06  2.5937716357994422e-06  1.6894636348929168e-06  1.6841589836021475e-06  4.9541919190881998e-06  3.2389635817210204e-06  4.5031207192407518e-06  4.0229400194587315e-06  4.9321166422988694e-06  4.8838605518537259e-06  4.7913719655770601e-06  4.7500244854476832e-06  4.7577258174230719e-06  5.0441115394299473e-06  4.9706315020161932e-06  4.4945894935921023e-06  4.8319032300226907e-06  3.6439194854323059e-06  1.8908590001144326e-06  3.0642410677030719e-06  2.0664529150711288e-06  1.7559879575148682e-06  1.7425830260876814e-06  1.9079714643110940e-06  2.3084648690217869e-06  2.0664398415432203e-06  2.4983681014647631e-06  4.7036086190963985e-06  4.9252990120883526e-06  4.7006963600847008e-06  2.5863153873213390e-06  3.8190410107846563e-06  3.9600822726083133e-06  4.8062451125983314e-06  4.4780407977695733e-06  4.5330739083610051e-06  4.5246171115698937e-06  4.6044953569095010e-06  4.7817913339778778e-06  4.9308656878550808e-06  4.9369266708199115e-06  1.9261502724435059e-06  4.8250391787209631e-06  4.9076751375577987e-06  4.1350143954344644e-06  4.1927600571419892e-06  4.9305297397890595e-06  4.7502199407454133e-06  4.6817400780007483e-06  4.4362772089252477e-06  4.8964580999639576e-06  4.4696041175073075e-06  3.3697733731897716e-06  4.7225989051735012e-06  3.5556465934318583e-06  4.1343781166688591e-06  4.8442019554344404e-06  1.6287929838022529e-06  1.8201992191881108e-06  1.6750991365406981e-06  7.6298839067609615e-07  1.3486365961226579e-06  1.5511088757082269e-06  5.3966733249050373e-07  2.7848095713989238e-06  4.3421316163910097e-06  1.6878946712182647e-06  2.2806880613952093e-06  1.8209670301701550e-06  2.3442887049322765e-06  2.0461602647441115e-06  2.9038791641415202e-06  4.8722528077304104e-06  4.9168548878089332e-06  4.5849656930870522e-06  4.2914943987707167e-06  4.8818960362748108e-06  4.2484723965990000e-06  4.2795274002396533e-06  4.4805458911357924e-06  4.4310101416150322e-06  4.0116392898113165e-06  4.9667035206644392e-06  5.0188600793807693e-06  1.7228147093286218e-06  5.0069161483258282e-06  4.9977131358265978e-06  5.0417404047293733e-06  4.8397525209992460e-06  4.8359499178367765e-06  4.3419929651217617e-06  7.2147518000944745e-07  4.7908674267390324e-06  4.7319049679523161e-06  4.7698893281933438e-06  4.5566871880570481e-06  4.8144657004568141e-06  1.4043609609771826e-06  3.3858581342920845e-06  4.6558781267372577e-06  4.8340701913024128e-06  5.0486460606257710e-06  4.5598584881037907e-06  4.6988258568894511e-06  4.5178627039958764e-06  4.9232576600818192e-06  4.7080525219097082e-06  3.1179194207612800e-07  1.4956124271558115e-06  4.6132471301580087e-06  2.6175673459331865e-06  4.2635840149845741e-06  4.4169393440046718e-06  4.9447336873495859e-06  3.2431573860692004e-06  5.0271569306357331e-06  3.9589523301361511e-07  4.9718297422696530e-06  4.6382905431729991e-06  4.5980616406980194e-06  6.6214141732441497e-07  4.2979340460507195e-06  1.3232825682838613e-06  2.9212195261576794e-06  4.2645819913047220e-06  4.5749006182653859e-06  4.4715079837960925e-06  4.4277011134993751e-06  4.7695756133938716e-06  4.5091131280235051e-06  4.6568934028280016e-06  4.6547451160596737e-06  4.3823131118370864e-06  4.3383896768033151e-06  1.8547846195775054e-06  4.8441708810175538e-06  4.7704231074567796e-06  4.4400175116090611e-06  4.3829150015723407e-06  4.6986532911449202e-06  4.6824500124761104e-06  6.2301020994525371e-07  4.3642297919587412e-06  2.7265194738587879e-06  4.6355552591723616e-06  2.3946215745954545e-06  1.6532590627042692e-06  1.1702757187858217e-06  3.6953487748717630e-06  4.6051512038615728e-06  4.9929965431833167e-06  4.8932227107586260e-06  1.5847800665038312e-06  5.0043671284983172e-06  4.9176273681022584e-06  3.2345683085266950e-06  2.7048441790490591e-06  4.3858733325303214e-06  4.0511572025103236e-06  4.4671509434609577e-06  5.0306021296217461e-06  4.9131059630148918e-06  4.6287424050787315e-06  4.6700003206496019e-06  4.9686252327601098e-06  5.0549174299762505e-06  4.2971963815682500e-07  4.6647216862039737e-06  2.6715832212063643e-06  5.0654142027463481e-06  5.0758676703406934e-06  5.0101443879427264e-06  4.8180007848272723e-06  4.7924963542644229e-06  4.5912787497229158e-06  4.5904416040484967e-06  4.5249894974727420e-06  4.6806003767662483e-06  4.2967888214596442e-06  3.8364785683996909e-07  3.9631396678067805e-07  4.8280810199904596e-06  4.4717225395167456e-06  4.9132834122986481e-06  5.5779431344886573e-07  1.9019478575433297e-06  4.7616049949079460e-06  1.4848648288365851e-06  1.2887927928506103e-06  2.6706744158380588e-06  4.4386366607723845e-06  3.4472718520797765e-06  4.7610438551529286e-06  1.6454065976755662e-06  4.9762761771816636e-06  4.4033340076837327e-06  4.2981011047092149e-06  3.0958800189428554e-07  1.7964245110757954e-06  1.7272316471871412e-06  4.3374935996907475e-06  4.5212442161264996e-06  4.4544685055389542e-06  5.0656750787031619e-06  4.7523864751716053e-06  4.6033529051418954e-06  4.3815147114495602e-06  4.9675403572405125e-06  3.4445488097492021e-06  4.8673908576734847e-06  4.9220138617186590e-06  4.4670183436213316e-06  4.8342710435375844e-06  3.4122370521181554e-06  4.2742306015234393e-06  4.7073777030977791e-06  4.5075045410307853e-06  4.9553856752978581e-06  7.6970672930317053e-07  1.0533475424654595e-06  4.6447623327612964e-06  4.5576371926961777e-06  4.9594501677329112e-06  4.9059501152602641e-06  4.8636088090172020e-06  4.9104903915221876e-06  4.7502259277603116e-06  4.5092409939507046e-06  4.4606262536568431e-06  3.2988281402344397e-06  4.7301603522267780e-06  4.2415077483769590e-06  4.2744791890300893e-06  4.8727951707291423e-06  4.8753558993792397e-06  4.3372838410361828e-06  4.9389309662047416e-06  4.6812362682895743e-06  4.5753468124149208e-06  2.9319705490701939e-06  2.2700893436533483e-06  4.1204163920287031e-06  4.4318192517362607e-06  1.3774189103058243e-06  5.0636910697701901e-06  5.0609972321519861e-06  4.0535152518775217e-06  4.8002648765566909e-06  3.5469615599727446e-06  4.6307041405966836e-06  4.3752500580144870e-06  5.0309940204148391e-06  3.3997857062561034e-06  2.5876187778054384e-06  4.2633372147587162e-06  4.9082496653630738e-06  4.1805618872274679e-06  2.6444970037051182e-06  4.9361615733348953e-06  4.7618219421870639e-06  1.8719242543090191e-06  3.8755779005781217e-06  3.6645811056191993e-06  2.0901866815556796e-06  1.0115269324536004e-06  4.4365860134334776e-06  4.2613207304606273e-06  4.3972840847024992e-06  4.2678418917749255e-06  1.8676756552725053e-06  4.6599293256870018e-06  4.4638009876111112e-06  4.8261420766324304e-06  4.8930763238557468e-06  4.5090056103273852e-06  4.4739111748515245e-06  4.7316956461127007e-06  4.1361910979884168e-06  5.0036346633530924e-06  4.9829215890438099e-06  1.5679910254323167e-06  5.0403329431883721e-06  4.9922373348319587e-06  4.9446876055951026e-06  4.9688313951684209e-06  4.3976766180028570e-06  1.7309584972614445e-06  1.8004153377344714e-06  4.9759072686882708e-06  6.3507589473332288e-07  1.4741580644717045e-06  5.1454205857081836e-07  8.6921703404823740e-07  1.6019057801479001e-06  4.9551170294746231e-06  1.5788413242713421e-06  4.1246438089172638e-06  4.4447103229113515e-06  3.1874361840809042e-07  3.1534634371477457e-07  4.7932617774460586e-06  4.6679202529446010e-06  9.1143407212081072e-07  4.4872424004566622e-06  3.0008043731926479e-07  3.4308373952588355e-06  2.8409201901872950e-07  4.5527626036813955e-07  8.2936965461128333e-07  1.0354834952849597e-06  4.5285153876208056e-06  4.5217320822720174e-06  2.0429638468276855e-06  4.9071116477924895e-06  4.8870125076294426e-06  4.8882771423208118e-06  4.8282900079533880e-06  4.9626301870762796e-06  4.7952797663441471e-06  4.7097584311379409e-06  2.0372293374381940e-06  4.4647278638198675e-06  4.3680652813893365e-06  4.3193425867506266e-06  1.7933078921868585e-06  2.0372817030415823e-06  4.5101929103803334e-06  4.0861649154268765e-06  4.7682939778617936e-06  4.8821784361433863e-06  4.8305672196526302e-06  4.8596643297070124e-06  2.1699988094546316e-06  4.6584477945789899e-06  1.6964119970596271e-06  5.0033804762675609e-06  3.4309274333063391e-06  3.0187111573804289e-06  4.8193344650276071e-06  4.990373291761811