<?xml version="1.0"?>
<VTKFile type="UnstructuredGrid"  version="0.1"  >
<UnstructuredGrid>
<Piece  NumberOfPoints="2446" NumberOfCells="4585">
<Points>
<DataArray  type="Float64"  NumberOfComponents="3"  format="ascii">0 0.41 0  0 0 0  2.2 0 0  2.2 0.41 0  0.2404508497187474 0.2293892626146237 0  0.25 0.2 0  0.2404508497187474 0.1706107373853764 0  0.2154508497187474 0.1524471741852423 0  0.1845491502812526 0.1524471741852423 0  0.1595491502812526 0.1706107373853764 0  0.15 0.2 0  0.1595491502812526 0.2293892626146237 0  0.1845491502812527 0.2475528258147577 0  0.2154508497187474 0.2475528258147577 0  1.1 0 0  1.1 0.41 0  0 0.205 0  0.55 0 0  0.55 0.41 0  0.275 0 0  0.275 0.41 0  1.65 0.41 0  1.65 0 0  0.8250000000000001 0.41 0  0.8250000000000001 0 0  1.375 0 0  1.375 0.41 0  1.925 0 0  1.925 0.41 0  1.5125 0.205 0  1.7875 0.205 0  0.6875 0.205 0  0.9625000000000001 0.205 0  1.2375 0.205 0  2.2 0.205 0  0.4687002074688797 0.2068568464730291 0  1.99375 0.2152743902439024 0  2.0625 0 0  2.0625 0.41 0  2.2 0.3075 0  0.4125 0 0  0.4125 0.41 0  1.7875 0.41 0  1.375 0.1486128048780488 0  1.5125 0 0  1.7875 0 0  1.5125 0.41 0  0.8250000000000001 0.2613871951219511 0  0.9625000000000001 0.41 0  0.9625000000000001 0 0  0.6875 0.41 0  0.6875 0 0  0.1375 0 0  0.1375 0.41 0  1.2375 0 0  1.1 0.1486128048780487 0  1.2375 0.41 0  1.65 0.1486128048780487 0  1.126715909090909 0.2793064024390244 0  1.676715909090909 0.2793064024390244 0  0.8517159090909092 0.1306935975609756 0  1.348284090909091 0.2793064024390244 0  0.34375 0.3032389320646208 0  1.894702181800738 0.1282910975492754 0  2.092797818199262 0.1282910975492754 0  1.85625 0.3075 0  0.61875 0.3075 0  0.61875 0.1025 0  0.3648540804333487 0.1240075933101478 0  0 0.3075 0  0 0.1025 0  2.099172119769978 0.25625 0  0.48125 0.09238439620688085 0  0.5781001037344399 0.2059284232365146 0  0.48125 0.3196743479159776 0  0.7265881057911006 0.3055240343720796 0  1.99375 0.08395950269330846 0  1.459960956013612 0.3075 0  1.569025960719943 0.2986889805672169 0  0.75625 0.08213100772579164 0  1.03125 0.3278689922742084 0  0.923871252904788 0.3078247185783941 0  1.959375 0.3126371951219512 0  1.749222215368287 0.1025 0  1.275777784631713 0.1025 0  2.2 0.1025 0  1.225938124459196 0.3075 0  1.550777784631713 0.1025 0  1.000777784631713 0.1025 0  1.44375 0.07430640243902442 0  1.16875 0.07430640243902437 0  1.899250267340833 0.2229966846119207 0  0.1020898364287272 0.3140258291809757 0  1.766482954545455 0.2934032012195123 0  0.3405058858996321 0.2119987970531874 0  0.7710785630958338 0.1710968191298857 0  1.046078563095834 0.2389031808701144 0  0.2 0.3400647632937836 0  1.421109702350723 0.2261157654379721 0  0.2800464974185557 0.08982544815605742 0  0.098916018031319 0.09171660955420841 0  2.13125 0 0  2.118919042110979 0.3422084711244843 0  1.30625 0.41 0  0.89375 0 0  1.597888256393107 0.2173787389261347 0  0.20625 0 0  1.829299675393195 0.07400700849299596 0  1.71875 0.41 0  1.16875 0.41 0  2.038220665644273 0.332420740103091 0  0.34375 0 0  0.417496017710808 0.2696595573092803 0  0.2 0.07687845740457822 0  0.9295982307099278 0.1343158415898188 0  0.07390688010811153 0.1697064032433452 0  0.5238366813727013 0.2578302467013575 0  0.05452951551825875 0.25625 0  0.5229630068078351 0.1548816096928243 0  1.452769549894695 0.1548122580621249 0  1.369219062229598 0.07430640243902442 0  1.30625 0 0  0.8504409521244898 0.3356935975609756 0  0.8821881244591965 0.205 0  1.720943423819132 0.1714577452753128 0  1.157188124459196 0.205 0  1.094219062229598 0.07430640243902437 0  1.03125 0 0  1.304056576180868 0.1714577452753128 0  1.67579304192913 0.07430640243902437 0  0.2751941921308361 0.3346083473122598 0  1.209670467133757 0.1362100266964769 0  1.025335513626278 0.1700681449722324 0  0.7562500000000001 0.41 0  1.58125 0 0  0.7567170593862014 0.2409196493502535 0  0.6926714215682891 0.1272249611432207 0  0.4139715849905988 0.3397932387114203 0  0.9840787304190477 0.2717749043358119 0  0.06875000000000001 0.41 0  0 0.35875 0  0.9281250000000001 0.06276726142697993 0  0.5507396469029935 0.3219409231578227 0  0.5504468037989405 0.09136885600634273 0  1.58125 0.41 0  1.631724228912893 0.3381867502687533 0  1.825608881788174 0.14499488549201 0  1.85625 0 0  1.44375 0 0  1.44375 0.41 0  1.85625 0.41 0  2.13125 0.41 0  0.7562500000000001 0 0  0.89375 0.41 0  0.4812500000000001 0 0  0.34375 0.41 0  0.4812500000000001 0.41 0  0.20625 0.41 0  0.06875000000000001 0 0  1.16875 0 0  0.61875 0 0  0.61875 0.41 0  1.03125 0.41 0  1.71875 0 0  1.99375 0 0  1.99375 0.41 0  1.340625 0.3489494290853124 0  1.134375 0.3489494290853123 0  1.700180620188976 0.3438659752031281 0  2.135782184673599 0.07126652247502523 0  1.668441847249787 0.2129203728327609 0  1.295782514339747 0.2378437748815763 0  0.8233075729931248 0.06842334294821524 0  1.409375 0.3520314716057996 0  0.403505597322782 0.182067236678212 0  0.378125 0.05794951541303489 0  0.3043468223249023 0.1518321115979534 0  2.129248544730567 0.1906135162504124 0  2.060771381434487 0.1989445750470348 0  2.013252586573865 0.1496169464686054 0  1.942766402200229 0.1734448904596831 0  1.895522487186454 0.06076163953489683 0  2.069553871656643 0.06605731020975725 0  1.274680914880868 0.3520219391081363 0  1.614713220494657 0.09473434380863296 0  0.7899021319497519 0.3149123934144827 0  0.69518737419149 0.0634051089053758 0  0.2971740475496061 0.2592172353407536 0  1.72990325744076 0.2380068107952482 0  1.356580098625191 0.2120393231351682 0  2.034370752044885 0.2668681600792073 0  1.51768709249349 0.3426260931494756 0  1.561883724969884 0.1650446847858835 0  1.197344062229598 0.2523725417393646 0  1.804085235518364 0.3468178408964637 0  1.817887819205233 0.2589243285818559 0  1.905897727272727 0.3485060975609756 0  0.6719798073392919 0.2688965171178177 0  0 0.05125 0  0.653125 0.35875 0  0.6396896119294488 0.1627615407790282 0  0.4274150154087412 0.1242548552168279 0  1.192836486056382 0.3562350748565544 0  0.8279124365364005 0.183856489168822 0  1.097485222388854 0.2083571153401724 0  1.28257088594801 0.2944411014911587 0  1.474860187679412 0.2504218616229368 0  1.406767003493824 0.2829282258560709 0  0.446875 0.04619219810344041 0  0.515625 0.04585361801037557 0  0.592043440706648 0.05125 0  1.845656689180403 0.1998310418452388 0  2.144958525570388 0.2909790873294231 0  0.6171090763650112 0.2492366900333857 0  2.2 0.15375 0  0.5145586920831158 0.3648371739579888 0  1.57794966442982 0.3540357145964566 0  0.721875 0.3633107922168974 0  0.0496154796471391 0.333125 0  0.5843750000000001 0.3662560860076676 0  0.5810878747760798 0.1474002776121195 0  1.508991196088596 0.1421783375065625 0  0.8840670607017558 0.2640994375393898 0  0.09776612425612034 0.2204896805326566 0  1.50436820029908 0.06143401634903343 0  1.223857000523521 0.0823554862453532 0  1.153316824384777 0.1289850171317837 0  2.148922302309752 0.1258841779285271 0  0.309375 0.04312325590431198 0  1.621993280276081 0.2841214267927899 0  1.550118654119087 0.2461998729100966 0  1.327182649291491 0.1216967252533594 0  1.051977450479407 0.1221382572915816 0  1.753125 0.04556020050186112 0  1.271875 0.04556020050186116 0  0.9816084133102366 0.05126138213476004 0  1.039051841454368 0.0572224914831029 0  0.9719230514536006 0.3480477870845102 0  1.94956388244759 0.1180512551534177 0  1.949997712993411 0.04965831614304109 0  1.771961817615021 0.1530278789497521 0  1.909246823951428 0.2812757146784527 0  0.2459536687882397 0.04668633953831142 0  1.948575539857022 0.2445328248721197 0  1.697271520964565 0.1233917627620729 0  0.7964897648514618 0.1211426571931604 0  1.065625 0.3689344961371042 0  1.085849084308977 0.3170853572226867 0  0.4702981435440001 0.260434880697798 0  1.577403511714593 0.05463601888079143 0  0.05622663515370135 0.05493816910862376 0  0.3267207591099919 0.3566194660323104 0  0.9003051618565143 0.3564049499960621 0  1.751571320346033 0.3651102912045228 0  0.1583785085108421 0.2994699345738728 0  0.1455283439499995 0.3542795598723423 0  2.2 0.35875 0  0.2347662494194072 0.298325008655211 0  0.1527284455616188 0.1065771775690181 0  0.1382139529076665 0.05427454456341477 0  0.8749341636311069 0.05110114999892954 0  0.643661668713109 0.05693499781019222 0  1.466879772203159 0.3611261772912453 0  1.990280163552011 0.3564754268533217 0  1.17471064520912 0.2990917256188288 0  0.5202693090594349 0.206382495511728 0  0 0.25625 0  2.2 0.25625 0  2.2 0.05125 0  0 0.15375 0  1.853978576207987 0.35875 0  0.9787513713939683 0.1487523696999336 0  0.240625 0.3722153812029779 0  1.515638456102889 0.2882700110184686 0  0.09048297387599738 0.3637717362208066 0  2.150453692751374 0.2387066338105111 0  1.323782677156475 0.04897634338873398 0  0.8074131292871642 0.3624701995505916 0  1.409375 0.03715320121951221 0  1.406484531114799 0.1087852750766809 0  1.134375 0.03715320121951218 0  1.627401732573545 0.04552157221025036 0  0.1170173172005315 0.1427610859166811 0  2.045405893604797 0.1105340662939892 0  1.255408269734577 0.1577307500159216 0  2.028125 0.03707597992059326 0  0.4743610090857199 0.1421513964721819 0  0.9354010469015898 0.250631300585664 0  0.04420832937638274 0.128125 0  0.8922386349349938 0.0992956419364831 0  0.1197849154434487 0.2663398672460083 0  1.248258025468107 0.2565907092181813 0  0.3746885856929528 0.370723531618974 0  1.203125 0.0366132337404304 0  0.5724622277005015 0.2751253816079333 0  0.3365425205162783 0.08395777655057959 0  2.072662025974815 0.2975086504196739 0  0.4581080832182547 0.3648371739579888 0  0.3874522734668214 0.2295447548840689 0  0.7827853612484443 0.04106550386289586 0  1.887722846421017 0.1760882698830035 0  1.472640588990488 0.1118278026240017 0  1.865937103925594 0.2604137786483804 0  1.463913572748262 0.2030442564990043 0  1.376426316059077 0.3186741374914345 0  0.6641993820150034 0.3141688596240831 0  0.2943117490824315 0.2130987422685822 0  0.3478153998082709 0.1666571081082676 0  0.3427990510599805 0.2575950027870776 0  0.7997118993855807 0.2216171933356366 0  
[...]
<PointData  Scalars="f_9-2"> 
<DataArray  type="Float64"  Name="f_9-2"  format="ascii">2.4870754919464219e-13  4.3254819675474240e-12  3.1386273526164698e-48  2.9013322859759188e-48  6.2213763537070641e-08  8.1478534037577162e-08  6.7125887505737832e-08  3.0109338275201432e-08  1.4145827287760711e-08  7.9703834897044248e-09  5.4695850656628076e-09  6.6993851856066244e-09  1.1254836941584545e-08  2.4143700379105260e-08  5.2137985352435921e-22  3.8289242263635473e-22  8.0095939724734605e-11  5.7844047469311484e-12  4.7237991723700682e-12  1.3546682772670925e-09  6.3929773211873181e-10  1.0128753362965586e-34  7.9736007266480676e-35  1.9875265993528364e-16  2.1613229411179696e-16  3.7834853951381672e-28  2.7483426512898870e-28  2.4283278522002117e-41  1.6090272381614965e-41  9.2036912415350056e-30  1.9378762551915035e-36  1.2613371029769926e-11  3.0508071226814075e-17  2.3608240342355793e-23  1.2403965995158182e-46  1.8405661939973860e-08  1.2939748990828669e-41  8.2789301525988961e-45  3.3511175377395136e-45  5.8192465364490809e-47  3.2729893155958901e-10  1.8530685552663542e-10  1.3288592071128116e-38  1.3849527568373261e-26  1.9619645173116905e-31  2.5798124330737811e-38  2.0744704118201078e-31  1.7382556123963958e-14  3.2707867591169930e-19  4.7107871451288159e-19  4.2034059599959484e-14  6.9449117953811845e-14  1.7361495525677101e-10  2.5553212403822199e-11  6.1232175401794339e-25  2.5338829348527859e-20  4.8021203203385698e-25  3.7939505127271005e-33  4.7981694269838363e-21  6.8575823767346196e-34  4.6134284597273373e-15  4.5329745928445095e-26  1.4637646110830812e-08  3.0779340685773710e-39  2.9359289856078338e-44  2.2032781428354150e-38  3.2617286152866541e-11  4.5746798746873754e-11  2.0574300010178966e-08  9.7573917445763792e-12  1.8880000320751035e-11  2.8052797675275176e-44  1.2033517796458716e-09  8.9692014447436763e-10  7.4872805919678074e-10  5.8907823906277384e-13  6.8864136239226928e-42  8.2761785398618619e-29  2.2510478033482077e-31  1.2493280820753487e-13  3.0823974165818012e-19  8.3452201636334943e-17  5.9787226041476890e-41  1.0531799288722075e-35  1.9735554592721156e-24  7.9794966428883757e-47  2.1596491365439038e-23  7.2805847684361708e-31  2.2995439121445680e-18  1.7515835482369031e-28  3.1302638230314140e-22  2.9424300883775228e-39  3.3870205282021534e-10  3.8776350047691674e-36  7.3283832032098693e-08  2.8479280003373471e-13  4.2095437509341299e-19  2.6424810529710596e-09  1.2199602872171237e-27  1.7046693086042674e-08  1.2705783422607066e-09  7.6386192972994093e-47  3.2332542176817015e-45  1.1094724658901827e-26  8.6156355151871619e-18  7.5628107882066356e-32  6.7411661565463897e-10  7.6740109156485221e-38  2.2408724307845778e-36  1.6577678863657774e-23  3.8931994827089105e-43  1.0733318607903008e-09  9.3295747140863795e-09  7.4650337707415631e-09  1.1891509973195484e-16  1.5646959164958458e-10  2.2060922603778147e-09  6.2164199922650008e-11  3.1987495224335326e-09  2.1858730961994818e-28  9.0578034460424807e-27  9.9300969755143608e-27  1.1997290063079032e-15  1.4996966440263690e-15  7.7462741206969635e-35  1.5186951981224617e-21  1.4447869404897021e-20  1.9957928918963863e-20  6.6535197158960102e-25  4.7229927859631541e-34  7.1617161547072189e-09  7.9687211108017529e-23  1.2596380928018101e-18  1.8401291047339704e-15  5.5209860054859409e-33  4.9247358523180369e-13  5.4222174354872951e-12  2.0662350279552187e-09  6.9530479882208595e-18  2.1063667157383638e-12  1.0950471136189110e-12  3.1301680477241611e-17  1.3729036890327637e-10  2.4626366563227977e-10  4.2714722064676383e-33  4.0739400074466241e-33  1.7873904648340010e-37  6.8507165457459184e-40  3.9616850178153529e-30  1.0045367378731874e-29  8.0939226761461994e-40  1.0235661110700385e-46  4.1611774741567589e-15  9.3462192167217739e-18  5.3883265646141217e-11  5.3598359779379780e-10  3.3282951458599747e-11  2.0288544385720274e-10  3.2275071497074752e-11  2.3169537014522754e-23  6.9289873738614128e-13  5.1138226494269816e-13  1.2817162476646311e-20  1.8797998945920840e-36  2.8508544158292321e-43  2.9609901101895590e-43  2.4466311643073505e-26  1.1094320080556302e-21  7.2592688538938181e-35  1.3780604608023990e-45  1.4613144622511446e-33  1.0550544034468923e-24  4.5305885166839960e-15  5.9428949301362841e-28  4.2965325492577210e-08  4.0504119839069378e-09  5.6727090441833969e-08  5.0595820760063326e-45  2.6385949306964046e-43  3.5697508107952209e-42  2.4895766982071756e-40  1.3965499153550248e-39  6.0775717278242078e-44  7.6255221775583902e-25  1.8665768060518276e-32  3.0636813442775921e-14  7.7421149716906730e-13  4.7691782603336960e-08  4.6619164490316722e-35  4.1930741594806012e-26  1.0186703568674875e-42  2.0014359421648983e-30  5.8059043605584191e-31  1.6490269471800646e-22  2.0759589573492798e-37  2.3768537199868286e-37  5.9671093128334710e-40  1.2289069336254521e-11  5.1740364360699299e-12  1.4065909986813238e-12  7.7157331181154298e-11  7.3397217038493781e-09  4.8307782407588435e-23  2.1987873410866127e-14  3.4669486338400131e-20  1.3442867779577758e-24  6.2674262700168181e-29  1.8671300290235046e-27  7.0614985322980160e-10  1.1988972375972743e-10  1.5453606936869708e-11  6.1973653796733842e-38  1.5467685367707680e-45  1.4243315800852714e-10  1.0108169895598911e-46  7.4522243120355219e-11  4.6535199863495563e-32  9.7519197826700818e-14  1.2580677650390315e-11  9.4599504901013229e-12  5.0619553761423446e-10  9.3924139450461221e-30  1.0234028454686211e-15  3.8359075761140947e-10  4.5439138727412201e-30  2.3099853607281179e-23  1.4842826859541032e-21  1.1855974917468335e-45  4.5652240534302718e-09  1.3579983762824348e-32  9.8032120433948497e-31  1.4316723523822181e-25  2.4826072413288274e-19  2.8759213688218200e-36  7.8669194932416418e-25  1.8553249412665147e-18  1.3309819924898909e-19  3.1471121563355008e-18  1.1761511326215810e-40  4.1209852845445055e-41  3.9821998351641974e-36  1.2225122460674396e-39  4.2158429474514159e-09  1.5641881039061522e-40  2.2258926801207057e-34  5.2519859765833784e-14  1.8525764238894928e-20  2.3197208489893040e-20  6.0216392776470364e-09  7.0016922633879677e-32  8.3248650706239950e-11  3.5738433947383397e-09  6.6344320534037554e-17  1.9481782233138736e-36  4.6517539804569517e-09  2.5824280853015680e-10  2.3512257951423395e-47  1.3964968151672467e-08  6.6362964948352357e-09  1.0342655390100885e-09  2.6234182521439554e-16  3.7160145840628673e-12  2.1085636156237376e-29  3.9624412561843330e-42  3.2512573763452331e-22  5.3374943766431183e-09  4.3694086940857575e-11  9.8924172915901387e-47  3.1707573426269239e-47  7.1302801602920714e-11  8.8161816717210482e-39  1.1647641924155824e-17  1.2538676714368676e-09  4.6481122185521273e-30  2.8724023107924501e-11  1.4977897409212626e-45  5.9877269921379163e-26  3.3326753536799927e-15  3.4573819316736383e-28  1.9323874333369038e-27  5.6369761632452803e-22  3.4598858725514610e-33  2.8322839052610801e-09  4.2636676715718758e-43  8.1131743002840124e-24  2.8717356421421279e-43  6.3831803144915256e-09  1.0446964565612508e-16  1.3086343939701844e-10  4.2270884312648595e-16  2.0758252388041853e-09  1.1488203998468653e-23  1.3777739758739524e-09  1.9692982040225815e-23  3.6005658811006870e-10  1.2939339532033957e-08  9.1792609951672516e-44  3.3821139667137791e-10  3.7168704433644478e-08  9.6013692580053188e-15  6.0639679271783223e-39  5.3523390755990882e-29  1.7306850380138967e-38  1.2594713791425265e-28  6.4292802563785477e-27  5.2941677002370863e-12  8.2609855050524629e-08  4.7634313077685195e-08  3.4958390870223359e-08  7.8432259844945032e-14  4.9798585628283132e-35  3.3344645577799531e-36  3.5835647240195606e-45  2.6589848203161811e-12  6.9983389019859201e-13  4.3220465139170435e-18  6.6487983590176402e-19  4.0412391412169354e-20  5.3258235687218493e-27  4.0121988243841346e-08  3.7770346326122144e-44  5.2631499306891127e-32  8.5978251872894066e-11  3.6857813138004261e-12  2.5967316460838822e-37  7.7978137502181481e-11  1.3808557381457672e-41  2.9560768156076864e-46  6.7477698841308895e-46  2.4885274550684332e-44  1.7861231663454016e-10  6.8143232492505944e-14  6.9254541673712641e-34  9.5121836462002017e-37  4.2982866723318741e-42  3.6018721121277960e-10  9.3542505758945357e-27  1.8545376100709102e-22  1.0633525923886509e-30  1.2229852520497436e-32  3.0170379239750972e-32  2.9493675945525597e-17  7.4802821420063155e-36  3.8046016118131024e-35  8.6588886981646600e-20  2.3100610005885589e-19  1.2752564285428150e-46  1.0775308326658521e-46  4.9469492814550988e-13  6.7232215868006093e-12  1.6368641438873831e-14  2.2933285816284215e-16  1.3934266487600208e-15  8.2885483502139226e-33  2.3331776819548336e-37  1.1640944574416296e-38  4.2590863538462212e-32  2.9970153609832497e-41  3.2813542575137057e-08  1.8503321191355744e-08  5.3862038772481537e-39  1.0529211164071579e-20  1.5296788282662200e-35  2.8726026635166813e-34  1.2096133555701488e-17  3.5567851343558716e-09  8.3771406094416020e-11  3.0508023731679726e-43  2.0144832852525684e-18  9.3847430264624999e-31  3.5701854627160782e-24  3.6533372913328964e-44  1.8738282696805748e-29  1.2566334485247047e-09  1.3643932598707742e-19  2.2015955290121254e-08  1.0371979170085671e-31  9.7589880298105601e-14  8.2370254356923184e-09  2.5788221575381472e-09  1.0615160410155869e-12  3.0364090791523217e-21  5.1899575306919613e-15  5.9732468332877655e-21  4.0143344603900802e-21  8.8386881043889380e-10  7.6320226881633498e-46  1.3791249813425871e-25  3.5048803286927154e-42  2.8727096466882516e-15  9.9799905034146379e-41  7.0165312280678845e-39  1.3362973935166130e-40  2.7124773514812630e-40  6.3480158966940263e-30  6.8992886370943402e-35  2.7335837498849162e-34  2.4627531822556435e-33  9.5376930936404267e-12  3.6685217369438761e-16  1.7654012268893889e-08  1.1169709685713778e-12  1.6987425779713247e-43  1.7386391345440763e-27  1.4442444924003201e-11  2.6826673511028081e-18  1.2460768638843437e-10  2.8480544131568646e-11  9.4426407979262832e-09  1.4987618389111607e-36  1.0118467155290232e-12  6.9942378308676681e-18  7.7933087810435610e-13  3.1948149166305292e-29  6.8404978532887052e-11  9.8615911397172673e-22  2.1269714036918458e-15  6.2535155161348458e-43  2.7085494959343345e-28  1.9277513775198950e-09  3.0622677903911894e-10  7.3255516291541261e-30  6.5065567572020318e-10  3.2971865062155567e-10  9.5477155381839318e-09  1.8779137205183691e-09  1.7362825483339161e-09  3.0004185185175919e-08  1.5685283463580657e-09  1.8925094823755096e-09  1.8543906608845199e-16  2.0390462236188601e-11  4.9536624308600506e-31  1.7575996041485092e-35  2.8767430913671101e-24  3.2046827690754924e-35  9.8499451572039837e-25  1.4625891639793674e-26  5.2552008281359171e-27  3.5535793401996063e-20  5.5781369669157378e-34  9.9532021912338802e-26  3.7114709608759681e-41  1.0266231128776651e-09  5.3444842354545602e-09  1.5680062424982335e-22  1.2195369553456469e-23  3.3502754261852856e-10  5.5684234600679237e-09  2.9834428119345334e-32  6.7111550317703180e-34  1.8103552717955506e-08  1.4152174877983358e-08  3.4771904529271321e-08  1.8194270418524067e-11  7.6530785584140466e-09  1.8449719388905285e-33  9.1616026125456798e-32  3.7068398837760858e-31  2.4366300718903144e-11  6.1038442359116042e-39  1.0311277415895114e-13  2.3361052522439575e-43  1.8760185100437770e-42  2.5049582574986593e-25  7.7933019083984855e-08  1.2141828999611313e-44  9.8452679991222943e-45  7.0290828668062799e-46  1.8333508294776321e-36  6.2048256625188517e-31  1.1154701056462596e-18  2.0526604455936831e-18  7.2917610922088239e-18  5.1569155529162895e-13  1.1336488065097684e-27  6.9346318464895312e-21  4.6388923578233978e-18  3.1791916510933883e-17  5.7092362680811246e-17  6.8869550052236116e-16  3.8365503871841571e-46  5.4387500419408576e-45  1.8609965959139008e-19  1.1163334259970385e-40  2.2922229949987901e-45  4.4266051284528616e-13  1.4199612934424954e-22  1.6278892331869493e-16  2.5920667067426855e-38  7.6541163157733359e-37  5.5986284057270491e-10  4.5485163684825248e-09  5.1621122695479157e-10  7.5918293338934599e-17  7.7532376171665292e-08  1.7550692029440170e-17  5.6250885966750881e-14  1.2046267289740444e-22  1.0423051973455859e-22  6.5253170645549920e-26  1.3714896124963244e-27  2.3615355215894175e-27  1.6043920876750540e-21  7.3278783849963729e-28  7.0246786413453813e-45  1.7984422720757001e-24  6.7699894482292276e-16  3.7636944215787542e-11  6.5986477381661230e-08  1.8468831842378661e-08  1.1674652228725056e-09  6.0285493203923108e-10  2.4772312571534265e-10  6.3609577437928264e-10  3.6525764649075469e-11  8.0868691232518129e-12  3.7399762184979949e-38  2.7619240631968368e-24  2.1284717216253492e-17  4.1894899152259827e-10  8.3334606993439867e-10  1.8647447709513973e-10  1.0168270340658153e-27  9.0815077634826259e-36  1.3745369968880259e-41  1.7183847336741815e-42  6.4357210578327154e-41  5.4822334155977109e-26  9.0726286964024386e-22  9.8813622004578112e-23  2.0792722078454064e-10  1.4200435048879559e-27  3.2087362575172170e-21  1.2614529853377771e-47  6.5544594737763346e-46  1.1612234746352786e-22  6.5940539580054246e-29  1.4311029020984707e-30  2.7732213264172155e-37  2.2428603910941894e-21  4.3120161517580343e-37  1.1763519852142613e-14  3.2976718824603515e-29  1.6381430096767037e-14  1.5881569138649888e-47  2.5414805001231395e-18  3.5916225593871107e-10  1.2601218859817657e-10  8.8279790446633483e-11  8.1970013149462338e-11  4.3127528037757036e-10  1.0016508802014073e-09  7.0511988955985637e-12  1.9175122289383013e-13  9.6424022171917978e-16  1.3595936050888931e-09  1.3376286309488397e-12  1.1991669952744650e-11  1.9390649694462941e-12  1.7113781947427924e-11  1.1598088323475130e-13  1.1274747485680142e-19  2.5747938476806775e-24  7.3245944149895248e-34  2.3930936722113364e-42  7.6316239029913063e-26  4.6944713371277022e-44  2.0516017190095367e-42  1.0961046891221066e-35  2.9015442976952351e-42  2.4173537369592350e-14  3.8945573101648268e-28  6.8823259346438640e-22  9.0929752891086910e-09  1.3191469973673870e-25  3.2940316131264367e-25  2.8256684342700003e-22  1.0547246370545108e-30  1.1506757619505511e-29  2.3621397679213761e-40  7.2025537050849283e-09  1.3495840885317203e-28  9.2814698310005567e-29  2.1074376349897198e-34  2.5113826576790140e-39  1.8239189493738788e-34  1.2874234661055454e-08  2.6759545663946247e-11  1.2558572960717010e-37  1.3186593548145145e-33  4.2538361697574729e-25  3.9029311991501491e-40  2.3145249491406561e-30  7.0421441379963506e-15  9.8378577453044501e-20  6.3771716049155384e-19  6.4510086012124002e-11  1.5790956070049732e-08  7.9687228119380125e-33  1.6444837458029532e-12  3.7163814156312245e-44  3.3182623742959035e-44  3.8615998879439102e-19  2.3106162440429173e-13  2.7970494757281386e-26  4.7507837933287553e-10  4.8396004637006544e-24  7.1531729498105422e-40  1.1768348440554131e-39  3.2940131774758613e-11  2.7192266310163706e-44  2.6732831438673064e-09  2.4067446987526136e-11  2.6729294136159576e-12  5.0061972970264508e-16  6.7427882293024638e-43  6.2172959382406111e-38  2.1377053526746828e-19  5.5101602577765158e-38  1.6954799810243700e-34  7.2368648882991887e-38  4.0650696080701603e-41  4.5944291874077980e-46  2.6715523426883929e-09  4.5932876560061909e-17  2.7844225456213135e-31  1.0552829972464102e-14  1.9276927859930811e-17  1.1733690845433651e-31  3.2092401780941290e-33  8.1638005837374592e-09  1.6169895875865060e-40  6.1213672606728809e-08  4.5941651639236412e-32  6.8550020208108592e-08  3.4531465720296052e-08  5.0617999177438344e-10  1.2764056948660357e-10  8.1327400773224482e-33  7.6361653314269601e-21  2.8048546635553790e-30  6.9890609333681749e-09  5.2301525696119503e-26  2.3208318752434375e-17  1.1767441712479782e-13  2.8687379558866987e-10  1.0380667544654254e-39  1.9536513277229201e-12  1.1003296404023511e-40  3.8801757897275067e-23  5.7736570198759514e-16  4.8692854167288025e-32  4.5885527109300402e-37  7.1811838555353463e-20  7.5660860272433699e-23  2.7990612203358226e-09  1.3861871754654612e-35  2.9858527647432014e-12  7.3023113093265804e-24  3.9224245432820911e-23  7.2057594037450871e-22  2.1657505698533298e-33  2.9327181572773802e-29  8.7869579252347678e-37  7.8239653575522207e-38  4.3499558740435261e-44  2.1539651485912871e-30  2.5225995228258258e-42  4.9607153304997002e-12  1.0494518489509608e-11  1.5851012970178361e-30  1.6643613210115532e-39  5.0485963732128211e-25  4.9546934326485593e-10  9.6752086204256504e-10  3.6007439495597498e-31  1.3008649033293425e-09  8.2470797563220930e-10  2.2904827964335279e-09  1.8499999140987974e-41  1.3850666272084703e-08  6.8996225465405022e-27  8.0395006764189725e-09  3.4514140107612080e-24  5.4090487116955897e-39  1.0528635580480864e-17  5.5528709475158690e-11  2.7452520646729667e-08  1.6615621100657897e-09  1.0556681650384942e-44  1.5166107495475760e-13  4.0778902912453163e-38  4.4786720067774899e-23  1.0697173950295935e-32  6.9073255919075717e-39  1.0778250001499483e-46  2.0965505749976259e-20  7.1316876847743740e-11  3.1865005966176085e-20  7.2989379922148297e-21  6.7940360537989965e-15  3.8599057085582573e-33  3.6375294126094862e-11  2.1721366778632297e-46  1.3898229075513470e-18  1.8292520039359651e-43  8.6156922377406247e-19  1.7608479393917331e-10  9.7359115757550544e-10  3.2360809395083418e-39  3.8619905130219160e-16  6.1640577970388733e-27  2.3352327975827838e-28  5.1873733653700710e-29  2.4546826111258158e-29  4.4444945564863024e-29  6.2150525643597052e-39  1.3760345017573054e-15  2.9144127636555261e-13  9.5821635759208539e-19  2.5528957311203050e-13  6.8508445817193057e-15  9.3636595318171373e-27  1.1444382763007440e-27  2.6841505271674248e-14  3.5098090997703627e-21  1.0859805528179810e-38  7.3336080195506273e-17  4.5425574627482032e-11  1.2039538772988763e-10  3.8690988027601048e-13  7.7370380017594590e-47  3.1169194017303649e-09  7.1943876893726478e-24  2.0850711085639608e-24  9.0160173833424504e-16  1.6384616125937914e-25  1.4767263736671660e-14  1.6571106729299655e-35  4.4290999766530763e-15  4.6701942794682009e-21  1.7155754470747698e-11  4.0208194981224222e-08  4.7285255661726407e-43  3.7895847746000080e-20  2.0636314415304547e-14  1.1756880229244979e-10  4.4003781410405632e-29  3.8313833956485107e-33  1.0209976075979086e-09  2.4444195488109579e-13  1.6945426259287151e-13  3.8074552855073350e-10  1.4911057106885561e-08  2.4687072145200989e-37  1.6935986989917642e-45  4.3237495284746889e-45  2.9272056547711437e-46  1.5031362605887927e-11  1.2892029061527837e-38  9.6092871269053831e-42  3.2702527685260236e-19  7.3392578336035430e-26  3.1194664446192035e-36  3.4595263484089738e-37  7.0098937003310861e-32  3.9497898448245860e-12  3.4057663278152622e-22  6.8175349883476554e-22  1.1578183684758704e-08  1.1184872250071345e-25  1.6143165212561885e-23  1.1016262212419245e-19  4.2278784120409687e-20  2.2546397420616631e-14  9.5902683169668215e-11  2.9603708460662716e-10  6.8502810694570698e-25  4.2982269050258890e-10  4.2032980371771210e-09  5.8166333487565030e-11  7.0051310780572862e-11  2.5324505416833372e-09  2.2670077865046689e-21  1.1475965621473224e-09  7.7514216060380305e-13  9.9895903208045930e-47  6.9685419793936462e-11  8.3055741734667814e-11  1.0693610475677425e-31  1.0386188092228601e-32  1.0778781048329377e-08  6.1335631860508292e-40  1.5497201985113494e-11  2.0802762813750506e-08  3.3602667142206963e-12  1.0729473922217044e-10  3.2137015107373468e-09  2.1406933079697799e-09  2.3674002343970477e-40  4.8126281954049679e-44  1.4758213527405002e-10  3.3241629906203557e-30  3.4592059125807309e-31  2.3952812818188223e-31  2.6814235202894248e-26  7.4563098315319551e-23  2.6059558340660771e-32  3.6107328069514978e-37  8.1204528485686623e-12  5.8253440362985849e-37  2.4651684556412628e-40  4.3659425819234710e-41  4.2158311278504336e-09  1.6631059720287739e-08  1.3270847223050421e-35  8.8416346386964325e-14  7.0673436760231387e-36  1.7528306719186560e-23  4.4903781561710529e-28  3.3093182977201595e-16  2.4702598846724415e-11  9.3580830810253073e-39  1.9583172717594379e-09  2.9084647860707250e-24  2.4305048463925964e-09  5.1141421498837101e-09  4.2704630817003141e-34  4.026654169600032