<?xml version="1.0"?>
<VTKFile type="UnstructuredGrid"  version="0.1"  >
<UnstructuredGrid>
<Piece  NumberOfPoints="2446" NumberOfCells="4585">
<Points>
<DataArray  type="Float64"  NumberOfComponents="3"  format="ascii">0 0.41 0  0 0 0  2.2 0 0  2.2 0.41 0  0.2404508497187474 0.2293892626146237 0  0.25 0.2 0  0.2404508497187474 0.1706107373853764 0  0.2154508497187474 0.1524471741852423 0  0.1845491502812526 0.1524471741852423 0  0.1595491502812526 0.1706107373853764 0  0.15 0.2 0  0.1595491502812526 0.2293892626146237 0  0.1845491502812527 0.2475528258147577 0  0.2154508497187474 0.2475528258147577 0  1.1 0 0  1.1 0.41 0  0 0.205 0  0.55 0 0  0.55 0.41 0  0.275 0 0  0.275 0.41 0  1.65 0.41 0  1.65 0 0  0.8250000000000001 0.41 0  0.8250000000000001 0 0  1.375 0 0  1.375 0.41 0  1.925 0 0  1.925 0.41 0  1.5125 0.205 0  1.7875 0.205 0  0.6875 0.205 0  0.9625000000000001 0.205 0  1.2375 0.205 0  2.2 0.205 0  0.4687002074688797 0.2068568464730291 0  1.99375 0.2152743902439024 0  2.0625 0 0  2.0625 0.41 0  2.2 0.3075 0  0.4125 0 0  0.4125 0.41 0  1.7875 0.41 0  1.375 0.1486128048780488 0  1.5125 0 0  1.7875 0 0  1.5125 0.41 0  0.8250000000000001 0.2613871951219511 0  0.9625000000000001 0.41 0  0.9625000000000001 0 0  0.6875 0.41 0  0.6875 0 0  0.1375 0 0  0.1375 0.41 0  1.2375 0 0  1.1 0.1486128048780487 0  1.2375 0.41 0  1.65 0.1486128048780487 0  1.126715909090909 0.2793064024390244 0  1.676715909090909 0.2793064024390244 0  0.8517159090909092 0.1306935975609756 0  1.348284090909091 0.2793064024390244 0  0.34375 0.3032389320646208 0  1.894702181800738 0.1282910975492754 0  2.092797818199262 0.1282910975492754 0  1.85625 0.3075 0  0.61875 0.3075 0  0.61875 0.1025 0  0.3648540804333487 0.1240075933101478 0  0 0.3075 0  0 0.1025 0  2.099172119769978 0.25625 0  0.48125 0.09238439620688085 0  0.5781001037344399 0.2059284232365146 0  0.48125 0.3196743479159776 0  0.7265881057911006 0.3055240343720796 0  1.99375 0.08395950269330846 0  1.459960956013612 0.3075 0  1.569025960719943 0.2986889805672169 0  0.75625 0.08213100772579164 0  1.03125 0.3278689922742084 0  0.923871252904788 0.3078247185783941 0  1.959375 0.3126371951219512 0  1.749222215368287 0.1025 0  1.275777784631713 0.1025 0  2.2 0.1025 0  1.225938124459196 0.3075 0  1.550777784631713 0.1025 0  1.000777784631713 0.1025 0  1.44375 0.07430640243902442 0  1.16875 0.07430640243902437 0  1.899250267340833 0.2229966846119207 0  0.1020898364287272 0.3140258291809757 0  1.766482954545455 0.2934032012195123 0  0.3405058858996321 0.2119987970531874 0  0.7710785630958338 0.1710968191298857 0  1.046078563095834 0.2389031808701144 0  0.2 0.3400647632937836 0  1.421109702350723 0.2261157654379721 0  0.2800464974185557 0.08982544815605742 0  0.098916018031319 0.09171660955420841 0  2.13125 0 0  2.118919042110979 0.3422084711244843 0  1.30625 0.41 0  0.89375 0 0  1.597888256393107 0.2173787389261347 0  0.20625 0 0  1.829299675393195 0.07400700849299596 0  1.71875 0.41 0  1.16875 0.41 0  2.038220665644273 0.332420740103091 0  0.34375 0 0  0.417496017710808 0.2696595573092803 0  0.2 0.07687845740457822 0  0.9295982307099278 0.1343158415898188 0  0.07390688010811153 0.1697064032433452 0  0.5238366813727013 0.2578302467013575 0  0.05452951551825875 0.25625 0  0.5229630068078351 0.1548816096928243 0  1.452769549894695 0.1548122580621249 0  1.369219062229598 0.07430640243902442 0  1.30625 0 0  0.8504409521244898 0.3356935975609756 0  0.8821881244591965 0.205 0  1.720943423819132 0.1714577452753128 0  1.157188124459196 0.205 0  1.094219062229598 0.07430640243902437 0  1.03125 0 0  1.304056576180868 0.1714577452753128 0  1.67579304192913 0.07430640243902437 0  0.2751941921308361 0.3346083473122598 0  1.209670467133757 0.1362100266964769 0  1.025335513626278 0.1700681449722324 0  0.7562500000000001 0.41 0  1.58125 0 0  0.7567170593862014 0.2409196493502535 0  0.6926714215682891 0.1272249611432207 0  0.4139715849905988 0.3397932387114203 0  0.9840787304190477 0.2717749043358119 0  0.06875000000000001 0.41 0  0 0.35875 0  0.9281250000000001 0.06276726142697993 0  0.5507396469029935 0.3219409231578227 0  0.5504468037989405 0.09136885600634273 0  1.58125 0.41 0  1.631724228912893 0.3381867502687533 0  1.825608881788174 0.14499488549201 0  1.85625 0 0  1.44375 0 0  1.44375 0.41 0  1.85625 0.41 0  2.13125 0.41 0  0.7562500000000001 0 0  0.89375 0.41 0  0.4812500000000001 0 0  0.34375 0.41 0  0.4812500000000001 0.41 0  0.20625 0.41 0  0.06875000000000001 0 0  1.16875 0 0  0.61875 0 0  0.61875 0.41 0  1.03125 0.41 0  1.71875 0 0  1.99375 0 0  1.99375 0.41 0  1.340625 0.3489494290853124 0  1.134375 0.3489494290853123 0  1.700180620188976 0.3438659752031281 0  2.135782184673599 0.07126652247502523 0  1.668441847249787 0.2129203728327609 0  1.295782514339747 0.2378437748815763 0  0.8233075729931248 0.06842334294821524 0  1.409375 0.3520314716057996 0  0.403505597322782 0.182067236678212 0  0.378125 0.05794951541303489 0  0.3043468223249023 0.1518321115979534 0  2.129248544730567 0.1906135162504124 0  2.060771381434487 0.1989445750470348 0  2.013252586573865 0.1496169464686054 0  1.942766402200229 0.1734448904596831 0  1.895522487186454 0.06076163953489683 0  2.069553871656643 0.06605731020975725 0  1.274680914880868 0.3520219391081363 0  1.614713220494657 0.09473434380863296 0  0.7899021319497519 0.3149123934144827 0  0.69518737419149 0.0634051089053758 0  0.2971740475496061 0.2592172353407536 0  1.72990325744076 0.2380068107952482 0  1.356580098625191 0.2120393231351682 0  2.034370752044885 0.2668681600792073 0  1.51768709249349 0.3426260931494756 0  1.561883724969884 0.1650446847858835 0  1.197344062229598 0.2523725417393646 0  1.804085235518364 0.3468178408964637 0  1.817887819205233 0.2589243285818559 0  1.905897727272727 0.3485060975609756 0  0.6719798073392919 0.2688965171178177 0  0 0.05125 0  0.653125 0.35875 0  0.6396896119294488 0.1627615407790282 0  0.4274150154087412 0.1242548552168279 0  1.192836486056382 0.3562350748565544 0  0.8279124365364005 0.183856489168822 0  1.097485222388854 0.2083571153401724 0  1.28257088594801 0.2944411014911587 0  1.474860187679412 0.2504218616229368 0  1.406767003493824 0.2829282258560709 0  0.446875 0.04619219810344041 0  0.515625 0.04585361801037557 0  0.592043440706648 0.05125 0  1.845656689180403 0.1998310418452388 0  2.144958525570388 0.2909790873294231 0  0.6171090763650112 0.2492366900333857 0  2.2 0.15375 0  0.5145586920831158 0.3648371739579888 0  1.57794966442982 0.3540357145964566 0  0.721875 0.3633107922168974 0  0.0496154796471391 0.333125 0  0.5843750000000001 0.3662560860076676 0  0.5810878747760798 0.1474002776121195 0  1.508991196088596 0.1421783375065625 0  0.8840670607017558 0.2640994375393898 0  0.09776612425612034 0.2204896805326566 0  1.50436820029908 0.06143401634903343 0  1.223857000523521 0.0823554862453532 0  1.153316824384777 0.1289850171317837 0  2.148922302309752 0.1258841779285271 0  0.309375 0.04312325590431198 0  1.621993280276081 0.2841214267927899 0  1.550118654119087 0.2461998729100966 0  1.327182649291491 0.1216967252533594 0  1.051977450479407 0.1221382572915816 0  1.753125 0.04556020050186112 0  1.271875 0.04556020050186116 0  0.9816084133102366 0.05126138213476004 0  1.039051841454368 0.0572224914831029 0  0.9719230514536006 0.3480477870845102 0  1.94956388244759 0.1180512551534177 0  1.949997712993411 0.04965831614304109 0  1.771961817615021 0.1530278789497521 0  1.909246823951428 0.2812757146784527 0  0.2459536687882397 0.04668633953831142 0  1.948575539857022 0.2445328248721197 0  1.697271520964565 0.1233917627620729 0  0.7964897648514618 0.1211426571931604 0  1.065625 0.3689344961371042 0  1.085849084308977 0.3170853572226867 0  0.4702981435440001 0.260434880697798 0  1.577403511714593 0.05463601888079143 0  0.05622663515370135 0.05493816910862376 0  0.3267207591099919 0.3566194660323104 0  0.9003051618565143 0.3564049499960621 0  1.751571320346033 0.3651102912045228 0  0.1583785085108421 0.2994699345738728 0  0.1455283439499995 0.3542795598723423 0  2.2 0.35875 0  0.2347662494194072 0.298325008655211 0  0.1527284455616188 0.1065771775690181 0  0.1382139529076665 0.05427454456341477 0  0.8749341636311069 0.05110114999892954 0  0.643661668713109 0.05693499781019222 0  1.466879772203159 0.3611261772912453 0  1.990280163552011 0.3564754268533217 0  1.17471064520912 0.2990917256188288 0  0.5202693090594349 0.206382495511728 0  0 0.25625 0  2.2 0.25625 0  2.2 0.05125 0  0 0.15375 0  1.853978576207987 0.35875 0  0.9787513713939683 0.1487523696999336 0  0.240625 0.3722153812029779 0  1.515638456102889 0.2882700110184686 0  0.09048297387599738 0.3637717362208066 0  2.150453692751374 0.2387066338105111 0  1.323782677156475 0.04897634338873398 0  0.8074131292871642 0.3624701995505916 0  1.409375 0.03715320121951221 0  1.406484531114799 0.1087852750766809 0  1.134375 0.03715320121951218 0  1.627401732573545 0.04552157221025036 0  0.1170173172005315 0.1427610859166811 0  2.045405893604797 0.1105340662939892 0  1.255408269734577 0.1577307500159216 0  2.028125 0.03707597992059326 0  0.4743610090857199 0.1421513964721819 0  0.9354010469015898 0.250631300585664 0  0.04420832937638274 0.128125 0  0.8922386349349938 0.0992956419364831 0  0.1197849154434487 0.2663398672460083 0  1.248258025468107 0.2565907092181813 0  0.3746885856929528 0.370723531618974 0  1.203125 0.0366132337404304 0  0.5724622277005015 0.2751253816079333 0  0.3365425205162783 0.08395777655057959 0  2.072662025974815 0.2975086504196739 0  0.4581080832182547 0.3648371739579888 0  0.3874522734668214 0.2295447548840689 0  0.7827853612484443 0.04106550386289586 0  1.887722846421017 0.1760882698830035 0  1.472640588990488 0.1118278026240017 0  1.865937103925594 0.2604137786483804 0  1.463913572748262 0.2030442564990043 0  1.376426316059077 0.3186741374914345 0  0.6641993820150034 0.3141688596240831 0  0.2943117490824315 0.2130987422685822 0  0.3478153998082709 0.1666571081082676 0  0.3427990510599805 0.2575950027870776 0  0.7997118993855807 0.2216171933356366 0  
[...]
<PointData  Scalars="f_9-2"> 
<DataArray  type="Float64"  Name="f_9-2"  format="ascii">3.4770510060159625e-08  6.4091169071208385e-08  6.3254049683046649e-07  7.2190915438945335e-07  1.2431158573762315e-06  1.8514430455884310e-06  1.4277272468627588e-06  5.1191347145817090e-07  1.7677882509703882e-07  1.1251435861064061e-07  9.1636736617918222e-08  1.1316378966340549e-07  1.7772186309447783e-07  4.2003558825475588e-07  3.1737668259753646e-06  3.1966579316925212e-06  5.5075465758938471e-08  8.6455595659482619e-07  5.8655846895562568e-07  4.2397660868391472e-07  3.0901150084662905e-07  1.9907875326741177e-06  2.1792856208200558e-06  2.0735644898783962e-06  2.8139234470888507e-06  2.8249040315496924e-06  2.6974409300342051e-06  1.3472819013428240e-06  1.3492300956105682e-06  3.3086200434959026e-06  2.8631228165108103e-06  2.2100555329648644e-06  3.3503343367588614e-06  3.5620264209222737e-06  2.0797563063886027e-06  1.8581926626510887e-06  2.5013473569076012e-06  8.5923547753059109e-07  1.0523589983377137e-06  1.7027204357924611e-06  4.9907212648158049e-07  3.7465544445897792e-07  1.5474947466972646e-06  3.5548987976982057e-06  2.3351522662511914e-06  1.9541342238221545e-06  2.5387416761186980e-06  2.8694220442560233e-06  2.8376496442180134e-06  3.1682130515380565e-06  1.5389055417319136e-06  1.5117882700928612e-06  2.3861312309902285e-07  1.3587829454339186e-07  3.1537404300610951e-06  3.4202822540320868e-06  2.8998464014974347e-06  2.7740601933643937e-06  3.5365192611436922e-06  3.1248912077952338e-06  2.9401515651497476e-06  3.3330250702752622e-06  5.9260377634424826e-07  2.7619449582346599e-06  1.6666476170788163e-06  1.9361840978146814e-06  8.5504405265785088e-07  2.6206268189704385e-06  9.7228465210529150e-07  4.0414566279733182e-08  5.6137645392179522e-08  2.3109337699814014e-06  7.4895949020607407e-07  1.9423247657908056e-06  8.4360476183439370e-07  2.8068216541538190e-06  1.7588168848962208e-06  2.9612596747261711e-06  3.2201734201553829e-06  1.9719555742304988e-06  3.1465052905396258e-06  2.9459435306070560e-06  1.9049519598008689e-06  2.6675864325878125e-06  3.4261455283240728e-06  1.2722014312660982e-06  3.5911183315486985e-06  2.7871135332188117e-06  3.4211066179220063e-06  3.1718799057617197e-06  3.3093464892003083e-06  2.4587442957126170e-06  1.5660511304889390e-07  2.4228277843196032e-06  2.1438524262704728e-06  2.7766664331176234e-06  3.2191130829619309e-06  3.4301312754423006e-07  3.3205663553726802e-06  4.7470073992664278e-07  1.8685202136267543e-07  7.0726756713424717e-07  1.4719857429299227e-06  2.7580209967183623e-06  3.1235134933098760e-06  3.2311082681195034e-06  3.5862081015273152e-07  2.5378316102741983e-06  1.7119469562220854e-06  3.0851620338152437e-06  1.7331015392310663e-06  4.5874929581753125e-07  1.8165150627450261e-06  4.0924404527987746e-07  3.4673145481592169e-06  5.9045546729225599e-08  1.9795477987665219e-06  5.1120870968275341e-08  2.1237612710497349e-06  3.4458168128527764e-06  3.3939388756703689e-06  3.0271728686756996e-06  2.8514002958979255e-06  2.9605459377058312e-06  2.9000753184879278e-06  3.5052917194052094e-06  3.3755298759378914e-06  3.1540457354119187e-06  3.5375386828949893e-06  2.3905034945514125e-06  4.1472527714266933e-07  3.4496713079626203e-06  3.3389972333867130e-06  1.8551047131989135e-06  2.2317487730739455e-06  3.0231592090730061e-06  2.7369595784389286e-06  5.3843633076947075e-07  3.0719973918995472e-06  5.4099170840197770e-08  3.4789027144098039e-08  3.4156084592815866e-06  6.6567277397874748e-07  1.7823211570757705e-06  2.3076682863107661e-06  2.8415868535680729e-06  2.8680034364553595e-06  1.6766234339996892e-06  2.5386326384091734e-06  2.6489215844597010e-06  1.4575208633315329e-06  8.5334077179982815e-07  2.1862519487655822e-06  2.3903543835374626e-06  6.2292969366879173e-07  3.4997855095408234e-07  4.1392493565955703e-07  2.3556901025974122e-07  1.0450812823402833e-07  3.2025159738111514e-06  1.1149089748090410e-06  1.0250700719052960e-06  3.1478160860979732e-06  2.1092051674027445e-06  1.0462364516438586e-06  1.2256215067510847e-06  2.9098812944079925e-06  3.4484439996456762e-06  2.3314126836212502e-06  1.0662632814518611e-06  3.0792189699860156e-06  3.5821807169711137e-06  2.6706482317295550e-06  2.7900395916823525e-06  1.6112292368627118e-06  4.9792043843250567e-07  1.6515273579067371e-06  2.0571073609355561e-06  2.3158121389013965e-06  2.3074159587469287e-06  2.6441020780842988e-06  2.1128621265859445e-06  1.1773234289351318e-06  3.1448720846987045e-06  2.5008870996436510e-06  3.1038566276766738e-06  1.7640612942205464e-06  9.6799523344762499e-07  3.0089519657272274e-06  3.5359830365761285e-06  2.3201009865144251e-06  2.9332110565853298e-06  3.1612599720005393e-06  3.5895269686908516e-06  1.7561185735542468e-06  2.4052191076103146e-06  1.6349330431690908e-06  1.7732953405627169e-06  5.8783643837253913e-08  1.2935282188044334e-06  2.0541153261555206e-06  7.7765959148290994e-07  3.3754121501895208e-06  2.6356501197083351e-06  3.3378707329230740e-06  3.5206139312846052e-06  3.1598635165856968e-06  3.0904608407165379e-06  5.3591638865225727e-07  8.1541082457587985e-07  1.4468441644867718e-06  2.6748865952277644e-06  2.0247325170650390e-06  1.1333106991373965e-06  1.7399466759263966e-06  4.7484709357543653e-07  2.8237748130234530e-06  2.0414665059594641e-06  4.4365249329086776e-08  6.8328033204645351e-07  2.4757510796149647e-06  3.2900038799402341e-06  3.0739432643543242e-06  6.2552913393651819e-08  2.6887375836241814e-06  3.3303588840569509e-06  3.4716922911667103e-06  1.5298886283526664e-06  4.5635177773172891e-07  3.2418940365495560e-06  3.2619968343266231e-06  3.5336920288077988e-06  3.3926222256451286e-06  2.2987634480719007e-06  3.2286684562934508e-06  3.3853923758725174e-06  3.3677134876406990e-06  2.7724643398572173e-06  2.4838303320296370e-06  1.6036697370280565e-06  2.8794904736384500e-06  2.0978498012345330e-06  4.2586942339587632e-07  2.3548441582317035e-06  2.6451694356443704e-06  2.3226730729981855e-06  3.2653660803367493e-06  3.4465300096594502e-06  2.2150209765958117e-06  2.3653320386486786e-06  8.0356450231641977e-08  3.9537611733037893e-07  2.5043120215765802e-06  1.7918585150033664e-06  3.1220004069511366e-07  2.0694992847165189e-07  1.0424934243408510e-06  3.8837561455138860e-07  3.0640449435302754e-07  2.8353661585837515e-07  3.1720287356892536e-06  1.7021811093492128e-06  2.7674638701267553e-06  1.5153596362892480e-06  3.6069225144595106e-06  2.3925002581785053e-06  4.9331920155527017e-08  2.1157583455706208e-06  8.2852938253239414e-07  5.7164807087880619e-08  1.6127310119810344e-06  3.4351446230189669e-06  3.0634564775136203e-07  3.1301025911751424e-06  7.9762482250193705e-08  2.2207581501165361e-06  3.2380060789515132e-06  2.4439172726767929e-06  2.9296104075031452e-06  3.4935306916922997e-06  3.2249378794467177e-06  2.2730919090343964e-06  1.4092125711840139e-07  1.7209721631824833e-06  3.4878142019045300e-06  1.0874715686300307e-06  1.0138722835168166e-06  3.2246271622687674e-06  6.1095134238250107e-08  3.3966289920869661e-06  1.6233571390114533e-07  3.6081536484489457e-06  3.9311582006217401e-07  3.2280594365663299e-06  1.1152177379313407e-06  5.4166298582361918e-07  2.1043285891568563e-06  4.5242058880154504e-07  2.2239477954097054e-06  2.2863245271572650e-06  2.7014194402710360e-06  3.3172298248419134e-06  2.2541106201578481e-06  3.3312256486489762e-06  2.9801123839993055e-06  1.5331214843075361e-06  1.9367501672074388e-06  1.9413918421638335e-06  1.2366647596172250e-06  2.8105731541782514e-06  2.8692907695919397e-06  2.7519742401397073e-06  8.7892451368509682e-07  2.7932804228817464e-06  2.5570124203492452e-06  3.2461735451461005e-06  3.1299754442287133e-06  3.3783006093745515e-06  3.4943399855238562e-06  8.1056578769581607e-07  1.1439710867880942e-06  2.8377206308932225e-06  1.5320344386251083e-06  2.6382349759208683e-06  2.0690280256242890e-06  5.4763285416233268e-08  2.3191037334322992e-06  1.4758687397143661e-06  9.5527788624446580e-07  1.3111458130244495e-06  1.5321983488543805e-07  1.8105494008788080e-06  2.1519598850636778e-06  2.7949891644508388e-06  2.0431445298748051e-06  3.0582129369839132e-07  3.3541810765883427e-06  3.5378034252914414e-06  2.4248694981604348e-06  3.0389274322182793e-06  2.4406905927510823e-06  2.1967420389379110e-06  2.1509983551630169e-06  2.2714884354349182e-06  3.0242874311948199e-06  3.0498912087286814e-06  7.6034393696145553e-07  9.4912031683697957e-07  3.8464387878735968e-08  2.4865165625841922e-06  2.2413403861587833e-06  3.3023944297861189e-06  3.1600164477902850e-06  3.2178651516740015e-06  2.2345901845035422e-06  2.6539573998028810e-06  2.2722029979497397e-06  1.4625705214353428e-06  1.9477477444177795e-06  3.3947144968447115e-07  1.4982622730465908e-06  3.2279342680910906e-06  2.3333189934648021e-06  2.2425392735958265e-06  3.4651139804345406e-06  5.5610217267533799e-07  1.8867758659855628e-07  2.0496282902116940e-06  2.6074320067396212e-06  3.2858330894255379e-06  3.1605674854215052e-06  1.9967555337550007e-06  2.6841971273135050e-06  3.5376422692970743e-07  3.3021595527217548e-06  1.1823937504633735e-06  3.2765717157147083e-06  3.0325853871965367e-06  7.8505813732103002e-07  1.0396831780391085e-06  2.9184887652518863e-06  3.3974420583738568e-06  2.8134686112875668e-06  3.4502282341792463e-06  3.4796662881186354e-06  6.8592518142706876e-08  1.8472997078623352e-06  3.2547474716259619e-06  1.3175254320050496e-06  3.1114751712145145e-06  1.4059633179917542e-06  2.0345836125198222e-06  1.5174096014551448e-06  2.2444939639157460e-06  3.0176039850267845e-06  2.5103376933784304e-06  2.2354068715735508e-06  2.5378826048110665e-06  7.2221824981091085e-08  2.9578247064201507e-06  5.0182662647701341e-07  3.6872977528588242e-08  1.3108341044805720e-06  3.5111954110999337e-06  2.4064991401691694e-06  2.9173237757814264e-06  6.8458696356404823e-08  1.0426266249319366e-06  3.6425733847719924e-07  2.5815541661769938e-06  2.2560632739186529e-06  2.6037822011217594e-06  1.8524826668128161e-06  3.3708272693177277e-06  5.6778804726571653e-08  3.5564815118786744e-06  3.0500205684347999e-06  1.4089895699681211e-06  3.0776575761209801e-06  3.3810447468878815e-07  2.2861207804445012e-07  3.1988820517719488e-06  3.3243987310560663e-07  1.9009950206270814e-06  1.8080439792100651e-06  1.3234106067751987e-06  2.4183363723679799e-06  9.1326439784379265e-07  1.5512180005510436e-06  2.0816935559725788e-06  2.3468766038881131e-06  4.4660323414213879e-08  2.3862023021507251e-06  2.9730572902049780e-06  3.5569005946624425e-06  2.7650893513676161e-06  3.4983607293329581e-06  3.5355440912247236e-06  3.0808469628193719e-06  3.4537726797993001e-06  2.8197393651316758e-06  3.5561722283219297e-06  2.5404892715615204e-06  9.9566755042315204e-08  4.6887135245647190e-07  3.3770625308754234e-06  3.4238745191992340e-06  8.7921577135335932e-08  3.9172478545945265e-07  3.1469869555009212e-06  2.8898267534013240e-06  1.4434915815802071e-06  2.8950861793004595e-07  6.3505128142563665e-07  5.8398729800114193e-08  2.3492676072128967e-06  2.3625122509392075e-06  3.1066495920919881e-06  2.6501753179032537e-06  2.6273959028361484e-06  1.8245481898834988e-06  2.6776641736346061e-06  2.3896726272428707e-06  2.4432978601277426e-06  3.4395502121098228e-06  1.9064528525727734e-06  2.1109643677059793e-06  2.2421893253020181e-06  2.1019625716341471e-06  2.0152692866074109e-06  2.5407390241645609e-06  3.2717847644854722e-06  3.3804029261224811e-06  3.3913069872273573e-06  1.4422541650727773e-06  3.2994149793739040e-06  3.3894013046999255e-06  3.2871340295337730e-06  3.2348223301418562e-06  3.0121327642674741e-06  2.8965664392386471e-06  1.2132528925707428e-06  1.3800199107595251e-06  3.2548827461990903e-06  2.5313243652571588e-06  1.0982081958026089e-06  3.0783427589300461e-06  3.5707182357116870e-06  3.2310014385167892e-06  2.8263053968240369e-06  2.8825335644122621e-06  1.4945602828328178e-06  4.7486071605589926e-07  4.0746171385803283e-07  3.4810379740664338e-06  2.1667777320050185e-06  2.9344287907193985e-06  2.4907484476429169e-06  3.2706307872854790e-06  3.1544458040892937e-06  2.8724264803406997e-06  2.7171318630156073e-06  2.7614728767802974e-06  3.5719856347312673e-06  3.4268723273310398e-06  1.7561310839565818e-06  2.9868456881553747e-06  1.9678015004245278e-06  5.3504494469156370e-07  2.1223539791488299e-06  1.1731625198067834e-06  4.9550645784600283e-07  4.7416623425922677e-07  6.6447866882007016e-07  1.1744701453794868e-06  6.5056054644412785e-07  8.9395224983172308e-07  2.7920924913133623e-06  3.2090568818417835e-06  3.2665819787339729e-06  1.0692769611259142e-06  2.3403705710314467e-06  2.5613810990768520e-06  2.9181062025274761e-06  1.8249942502478647e-06  2.5278228577503221e-06  2.3919158498042630e-06  2.1683298385247383e-06  2.8104155502465286e-06  3.2675883817079734e-06  3.2275707108977936e-06  6.2128039214401054e-07  2.9445296714821888e-06  3.1579023432132909e-06  6.5287085236356260e-07  7.7262355604773552e-07  3.1955272850020163e-06  2.6921848768370994e-06  2.6075253549418514e-06  1.6169740010436008e-06  3.2005756295388247e-06  2.0579209238936791e-06  1.7327511413406962e-06  2.6745582986773158e-06  1.8239247329448720e-06  7.6862428418697674e-07  3.1688470560904975e-06  3.6313794858261888e-07  5.4515679172204884e-07  3.8715350358823550e-07  1.6469992419474431e-07  2.7695873819289692e-07  3.9606013817314993e-07  8.6891213442919033e-08  1.2698767615392218e-06  2.5283862803813567e-06  4.4356478032942648e-07  7.7997623975352087e-07  4.7125610660652515e-07  9.8145936331005230e-07  7.3480796878450480e-07  1.2926426704429253e-06  3.1652404331002932e-06  3.1859800315686727e-06  2.2019681363153138e-06  1.1801836938373022e-06  3.1009950470756574e-06  9.4269994742866422e-07  1.2856167086207532e-06  1.8718170166544525e-06  2.0069532453985092e-06  2.2250769784853183e-06  3.4562167856680928e-06  3.5115087691265307e-06  6.1046524023805769e-07  3.5255672233161152e-06  3.5041497335099159e-06  3.5446050425494480e-06  3.1254072595752086e-06  3.0061776468718397e-06  1.6095761936537902e-06  1.9516067209527126e-07  2.8401186975812057e-06  2.7015740785331178e-06  3.0881941303596883e-06  1.8713668015545846e-06  3.0267579257031247e-06  4.3141443971095751e-07  1.7324722440977510e-06  2.7985903112784844e-06  3.1699913677331547e-06  3.5667490783121376e-06  1.9038874077099532e-06  2.6656009414955281e-06  3.1174745231596482e-06  3.3435494158287447e-06  2.8883480019101038e-06  5.2690870490102736e-08  4.4459054073304295e-07  2.2494558955843769e-06  1.0205264475298423e-06  9.6252228558915265e-07  1.3818756751457299e-06  3.4372631172265318e-06  1.5693305868016675e-06  3.5517547911314761e-06  8.0845933755923731e-08  3.4168852286525695e-06  2.5626841398444501e-06  2.7266679441548023e-06  1.1809054277718133e-07  1.7093983184548473e-06  3.6797175191962953e-07  1.2023669257838044e-06  2.5487615108875308e-06  3.1061778186235931e-06  2.0840254048234191e-06  1.5827000923896500e-06  3.2672242468907156e-06  1.7960893803438700e-06  2.8457292170195772e-06  2.4806447296632657e-06  1.9558812073106005e-06  2.1333940918374331e-06  6.2620566183278228e-07  3.4124583187803335e-06  2.9127282286592733e-06  2.6432828437738792e-06  2.6829034715827292e-06  2.5442254432784568e-06  2.3858265042344118e-06  1.7949752107507581e-07  1.4438172160751859e-06  1.6020109815384923e-06  2.5250622777553074e-06  1.4037620364658088e-06  8.0404958859834242e-07  2.8854549582236506e-07  2.4553632355039947e-06  2.4376630056113032e-06  3.4704339643823132e-06  3.2992396051942811e-06  4.5248865244581899e-07  3.4911633058368714e-06  3.4542302167105825e-06  1.6099359947363560e-06  1.4894341141147638e-06  1.4805921042266897e-06  2.2303510777915063e-06  1.6937484133521259e-06  3.5184021730420287e-06  3.3803141125882297e-06  2.2848046240293556e-06  2.6595874251243524e-06  3.4225228389332417e-06  3.5846282594533253e-06  9.6796106325284729e-08  2.8274773551323330e-06  1.2869132948596798e-06  3.5856090167317341e-06  3.6170382642584917e-06  3.5392442107369276e-06  2.9440198505730622e-06  2.9621302974003384e-06  2.3806039013409602e-06  2.1455877873980552e-06  2.2053667021278603e-06  2.4609056775519446e-06  1.3372843944272962e-06  6.2226958968578627e-08  6.6137238708062774e-08  3.1381622268144720e-06  2.5154271269606070e-06  3.2947870475986277e-06  1.2540817853122470e-07  6.3934929818061724e-07  2.9527804273057901e-06  3.8397317044938145e-07  2.7904281068072773e-07  1.4718270186426215e-06  2.2890671790379533e-06  2.2781797196752516e-06  2.7647466068817442e-06  4.3661473566222811e-07  3.3308646086447353e-06  1.5155797818220440e-06  2.4639938051943343e-06  5.1795426943747876e-08  7.0737171032821327e-07  4.7040248320490059e-07  1.1039717959013371e-06  3.0736215145888946e-06  2.1712305110955215e-06  3.5959845032957981e-06  2.6698397072073320e-06  2.0568691918842934e-06  2.1495482282242566e-06  3.4735109594389722e-06  1.9525031907082194e-06  3.3600120453100060e-06  3.4255538494818928e-06  2.8219447392021557e-06  3.2173226162190846e-06  1.9193893905635806e-06  9.5231346474627478e-07  3.1461307947457210e-06  2.3156250358177847e-06  3.4351369330719211e-06  1.5840987826470813e-07  2.5477813680664279e-07  2.2759498443403709e-06  3.1342866078630419e-06  3.4296021277286304e-06  3.2453832867798785e-06  3.0580320979860612e-06  3.2449241468230100e-06  2.7239109501351327e-06  1.7462805019917248e-06  2.6431859846793555e-06  1.8018477861352434e-06  2.9434960995490512e-06  2.8913314382707071e-06  2.7496578761987497e-06  3.2214304399180725e-06  3.1916290100862572e-06  2.7731788783220197e-06  3.2485725182768389e-06  2.5884177767109768e-06  3.1324147437532000e-06  1.3093783488162513e-06  9.1926100794351925e-07  2.3804086011920438e-06  1.5132802256913743e-06  3.5114082893751850e-07  3.6031114859817780e-06  3.5960215506398910e-06  2.4542086873908219e-06  2.8876030916556789e-06  1.8991236962617414e-06  2.4141026117042221e-06  2.9387701727584226e-06  3.5090335979716548e-06  2.0217473695848816e-06  1.7395801342487416e-06  1.2824264702407838e-06  3.2126305687286693e-06  2.7516332203457337e-06  1.1581356585117760e-06  3.3890667419160981e-06  3.1074222897083016e-06  5.8628573006123245e-07  2.5074534656625955e-06  2.1998386067084132e-06  7.1910664924994090e-07  2.9648172877971668e-07  1.6191707115125293e-06  1.7345290003690870e-06  2.2356857441603167e-06  1.7993384567962561e-06  5.0211696356575326e-07  2.4280887338520929e-06  1.8038074932480487e-06  3.3298455168593973e-06  3.1391239233792491e-06  2.1467408185414266e-06  2.1031757933318457e-06  2.6844143265347511e-06  2.6528053259250264e-06  3.4579806521142206e-06  3.3930419329278742e-06  4.7947062801443015e-07  3.5635292539605773e-06  3.4547178953753732e-06  3.3084852213741864e-06  3.3372488915505901e-06  3.0461371784271921e-06  4.3438172428748601e-07  5.3100899917593669e-07  3.3482150777652802e-06  1.4242572883556952e-07  4.1131929979424443e-07  9.8626712145502977e-08  1.6487067229850057e-07  4.2499903835889528e-07  3.3013357337474058e-06  3.5106309015935703e-07  2.8071929787785700e-06  1.9346107556633918e-06  5.5961936534166103e-08  5.4153041726339651e-08  3.1019098766230678e-06  2.7408047152508106e-06  2.5677773218663575e-07  2.6073561725047241e-06  4.3542849055309991e-08  2.2709873529684587e-06  3.6781665556791020e-08  8.3221809294210473e-08  2.3519741861178497e-07  2.8408716331718179e-07  2.6569137936009143e-06  2.3236014508700376e-06  7.7211036796369056e-07  3.2707471846963152e-06  3.2545478385343830e-06  3.2794546686420747e-06  3.0596423013938906e-06  3.3097639538807720e-06  2.9390457078830653e-06  2.7806720622037661e-06  6.0789068343013933e-07  1.7359201174474216e-06  1.8810411492685335e-06  1.4196570510260946e-06  5.3280087958262221e-07  1.0584434247020913e-06  2.0750081035205758e-06  2.6795828142930512e-06  2.7919380769685457e-06  3.1396830417043557e-06  2.9826945935043810e-06  3.3768991647651432e-06  8.3068614736463856e-07  2.7933382714126969e-06  4.5274256263750753e-07  3.4976925660120604e-06  2.3221069672709622e-06  1.7748076084630384e-06  3.0994286261894349e-06  3.389124575372850