<?xml version="1.0"?>
<VTKFile type="UnstructuredGrid"  version="0.1"  >
<UnstructuredGrid>
<Piece  NumberOfPoints="2446" NumberOfCells="4585">
<Points>
<DataArray  type="Float64"  NumberOfComponents="3"  format="ascii">0 0.41 0  0 0 0  2.2 0 0  2.2 0.41 0  0.2404508497187474 0.2293892626146237 0  0.25 0.2 0  0.2404508497187474 0.1706107373853764 0  0.2154508497187474 0.1524471741852423 0  0.1845491502812526 0.1524471741852423 0  0.1595491502812526 0.1706107373853764 0  0.15 0.2 0  0.1595491502812526 0.2293892626146237 0  0.1845491502812527 0.2475528258147577 0  0.2154508497187474 0.2475528258147577 0  1.1 0 0  1.1 0.41 0  0 0.205 0  0.55 0 0  0.55 0.41 0  0.275 0 0  0.275 0.41 0  1.65 0.41 0  1.65 0 0  0.8250000000000001 0.41 0  0.8250000000000001 0 0  1.375 0 0  1.375 0.41 0  1.925 0 0  1.925 0.41 0  1.5125 0.205 0  1.7875 0.205 0  0.6875 0.205 0  0.9625000000000001 0.205 0  1.2375 0.205 0  2.2 0.205 0  0.4687002074688797 0.2068568464730291 0  1.99375 0.2152743902439024 0  2.0625 0 0  2.0625 0.41 0  2.2 0.3075 0  0.4125 0 0  0.4125 0.41 0  1.7875 0.41 0  1.375 0.1486128048780488 0  1.5125 0 0  1.7875 0 0  1.5125 0.41 0  0.8250000000000001 0.2613871951219511 0  0.9625000000000001 0.41 0  0.9625000000000001 0 0  0.6875 0.41 0  0.6875 0 0  0.1375 0 0  0.1375 0.41 0  1.2375 0 0  1.1 0.1486128048780487 0  1.2375 0.41 0  1.65 0.1486128048780487 0  1.126715909090909 0.2793064024390244 0  1.676715909090909 0.2793064024390244 0  0.8517159090909092 0.1306935975609756 0  1.348284090909091 0.2793064024390244 0  0.34375 0.3032389320646208 0  1.894702181800738 0.1282910975492754 0  2.092797818199262 0.1282910975492754 0  1.85625 0.3075 0  0.61875 0.3075 0  0.61875 0.1025 0  0.3648540804333487 0.1240075933101478 0  0 0.3075 0  0 0.1025 0  2.099172119769978 0.25625 0  0.48125 0.09238439620688085 0  0.5781001037344399 0.2059284232365146 0  0.48125 0.3196743479159776 0  0.7265881057911006 0.3055240343720796 0  1.99375 0.08395950269330846 0  1.459960956013612 0.3075 0  1.569025960719943 0.2986889805672169 0  0.75625 0.08213100772579164 0  1.03125 0.3278689922742084 0  0.923871252904788 0.3078247185783941 0  1.959375 0.3126371951219512 0  1.749222215368287 0.1025 0  1.275777784631713 0.1025 0  2.2 0.1025 0  1.225938124459196 0.3075 0  1.550777784631713 0.1025 0  1.000777784631713 0.1025 0  1.44375 0.07430640243902442 0  1.16875 0.07430640243902437 0  1.899250267340833 0.2229966846119207 0  0.1020898364287272 0.3140258291809757 0  1.766482954545455 0.2934032012195123 0  0.3405058858996321 0.2119987970531874 0  0.7710785630958338 0.1710968191298857 0  1.046078563095834 0.2389031808701144 0  0.2 0.3400647632937836 0  1.421109702350723 0.2261157654379721 0  0.2800464974185557 0.08982544815605742 0  0.098916018031319 0.09171660955420841 0  2.13125 0 0  2.118919042110979 0.3422084711244843 0  1.30625 0.41 0  0.89375 0 0  1.597888256393107 0.2173787389261347 0  0.20625 0 0  1.829299675393195 0.07400700849299596 0  1.71875 0.41 0  1.16875 0.41 0  2.038220665644273 0.332420740103091 0  0.34375 0 0  0.417496017710808 0.2696595573092803 0  0.2 0.07687845740457822 0  0.9295982307099278 0.1343158415898188 0  0.07390688010811153 0.1697064032433452 0  0.5238366813727013 0.2578302467013575 0  0.05452951551825875 0.25625 0  0.5229630068078351 0.1548816096928243 0  1.452769549894695 0.1548122580621249 0  1.369219062229598 0.07430640243902442 0  1.30625 0 0  0.8504409521244898 0.3356935975609756 0  0.8821881244591965 0.205 0  1.720943423819132 0.1714577452753128 0  1.157188124459196 0.205 0  1.094219062229598 0.07430640243902437 0  1.03125 0 0  1.304056576180868 0.1714577452753128 0  1.67579304192913 0.07430640243902437 0  0.2751941921308361 0.3346083473122598 0  1.209670467133757 0.1362100266964769 0  1.025335513626278 0.1700681449722324 0  0.7562500000000001 0.41 0  1.58125 0 0  0.7567170593862014 0.2409196493502535 0  0.6926714215682891 0.1272249611432207 0  0.4139715849905988 0.3397932387114203 0  0.9840787304190477 0.2717749043358119 0  0.06875000000000001 0.41 0  0 0.35875 0  0.9281250000000001 0.06276726142697993 0  0.5507396469029935 0.3219409231578227 0  0.5504468037989405 0.09136885600634273 0  1.58125 0.41 0  1.631724228912893 0.3381867502687533 0  1.825608881788174 0.14499488549201 0  1.85625 0 0  1.44375 0 0  1.44375 0.41 0  1.85625 0.41 0  2.13125 0.41 0  0.7562500000000001 0 0  0.89375 0.41 0  0.4812500000000001 0 0  0.34375 0.41 0  0.4812500000000001 0.41 0  0.20625 0.41 0  0.06875000000000001 0 0  1.16875 0 0  0.61875 0 0  0.61875 0.41 0  1.03125 0.41 0  1.71875 0 0  1.99375 0 0  1.99375 0.41 0  1.340625 0.3489494290853124 0  1.134375 0.3489494290853123 0  1.700180620188976 0.3438659752031281 0  2.135782184673599 0.07126652247502523 0  1.668441847249787 0.2129203728327609 0  1.295782514339747 0.2378437748815763 0  0.8233075729931248 0.06842334294821524 0  1.409375 0.3520314716057996 0  0.403505597322782 0.182067236678212 0  0.378125 0.05794951541303489 0  0.3043468223249023 0.1518321115979534 0  2.129248544730567 0.1906135162504124 0  2.060771381434487 0.1989445750470348 0  2.013252586573865 0.1496169464686054 0  1.942766402200229 0.1734448904596831 0  1.895522487186454 0.06076163953489683 0  2.069553871656643 0.06605731020975725 0  1.274680914880868 0.3520219391081363 0  1.614713220494657 0.09473434380863296 0  0.7899021319497519 0.3149123934144827 0  0.69518737419149 0.0634051089053758 0  0.2971740475496061 0.2592172353407536 0  1.72990325744076 0.2380068107952482 0  1.356580098625191 0.2120393231351682 0  2.034370752044885 0.2668681600792073 0  1.51768709249349 0.3426260931494756 0  1.561883724969884 0.1650446847858835 0  1.197344062229598 0.2523725417393646 0  1.804085235518364 0.3468178408964637 0  1.817887819205233 0.2589243285818559 0  1.905897727272727 0.3485060975609756 0  0.6719798073392919 0.2688965171178177 0  0 0.05125 0  0.653125 0.35875 0  0.6396896119294488 0.1627615407790282 0  0.4274150154087412 0.1242548552168279 0  1.192836486056382 0.3562350748565544 0  0.8279124365364005 0.183856489168822 0  1.097485222388854 0.2083571153401724 0  1.28257088594801 0.2944411014911587 0  1.474860187679412 0.2504218616229368 0  1.406767003493824 0.2829282258560709 0  0.446875 0.04619219810344041 0  0.515625 0.04585361801037557 0  0.592043440706648 0.05125 0  1.845656689180403 0.1998310418452388 0  2.144958525570388 0.2909790873294231 0  0.6171090763650112 0.2492366900333857 0  2.2 0.15375 0  0.5145586920831158 0.3648371739579888 0  1.57794966442982 0.3540357145964566 0  0.721875 0.3633107922168974 0  0.0496154796471391 0.333125 0  0.5843750000000001 0.3662560860076676 0  0.5810878747760798 0.1474002776121195 0  1.508991196088596 0.1421783375065625 0  0.8840670607017558 0.2640994375393898 0  0.09776612425612034 0.2204896805326566 0  1.50436820029908 0.06143401634903343 0  1.223857000523521 0.0823554862453532 0  1.153316824384777 0.1289850171317837 0  2.148922302309752 0.1258841779285271 0  0.309375 0.04312325590431198 0  1.621993280276081 0.2841214267927899 0  1.550118654119087 0.2461998729100966 0  1.327182649291491 0.1216967252533594 0  1.051977450479407 0.1221382572915816 0  1.753125 0.04556020050186112 0  1.271875 0.04556020050186116 0  0.9816084133102366 0.05126138213476004 0  1.039051841454368 0.0572224914831029 0  0.9719230514536006 0.3480477870845102 0  1.94956388244759 0.1180512551534177 0  1.949997712993411 0.04965831614304109 0  1.771961817615021 0.1530278789497521 0  1.909246823951428 0.2812757146784527 0  0.2459536687882397 0.04668633953831142 0  1.948575539857022 0.2445328248721197 0  1.697271520964565 0.1233917627620729 0  0.7964897648514618 0.1211426571931604 0  1.065625 0.3689344961371042 0  1.085849084308977 0.3170853572226867 0  0.4702981435440001 0.260434880697798 0  1.577403511714593 0.05463601888079143 0  0.05622663515370135 0.05493816910862376 0  0.3267207591099919 0.3566194660323104 0  0.9003051618565143 0.3564049499960621 0  1.751571320346033 0.3651102912045228 0  0.1583785085108421 0.2994699345738728 0  0.1455283439499995 0.3542795598723423 0  2.2 0.35875 0  0.2347662494194072 0.298325008655211 0  0.1527284455616188 0.1065771775690181 0  0.1382139529076665 0.05427454456341477 0  0.8749341636311069 0.05110114999892954 0  0.643661668713109 0.05693499781019222 0  1.466879772203159 0.3611261772912453 0  1.990280163552011 0.3564754268533217 0  1.17471064520912 0.2990917256188288 0  0.5202693090594349 0.206382495511728 0  0 0.25625 0  2.2 0.25625 0  2.2 0.05125 0  0 0.15375 0  1.853978576207987 0.35875 0  0.9787513713939683 0.1487523696999336 0  0.240625 0.3722153812029779 0  1.515638456102889 0.2882700110184686 0  0.09048297387599738 0.3637717362208066 0  2.150453692751374 0.2387066338105111 0  1.323782677156475 0.04897634338873398 0  0.8074131292871642 0.3624701995505916 0  1.409375 0.03715320121951221 0  1.406484531114799 0.1087852750766809 0  1.134375 0.03715320121951218 0  1.627401732573545 0.04552157221025036 0  0.1170173172005315 0.1427610859166811 0  2.045405893604797 0.1105340662939892 0  1.255408269734577 0.1577307500159216 0  2.028125 0.03707597992059326 0  0.4743610090857199 0.1421513964721819 0  0.9354010469015898 0.250631300585664 0  0.04420832937638274 0.128125 0  0.8922386349349938 0.0992956419364831 0  0.1197849154434487 0.2663398672460083 0  1.248258025468107 0.2565907092181813 0  0.3746885856929528 0.370723531618974 0  1.203125 0.0366132337404304 0  0.5724622277005015 0.2751253816079333 0  0.3365425205162783 0.08395777655057959 0  2.072662025974815 0.2975086504196739 0  0.4581080832182547 0.3648371739579888 0  0.3874522734668214 0.2295447548840689 0  0.7827853612484443 0.04106550386289586 0  1.887722846421017 0.1760882698830035 0  1.472640588990488 0.1118278026240017 0  1.865937103925594 0.2604137786483804 0  1.463913572748262 0.2030442564990043 0  1.376426316059077 0.3186741374914345 0  0.6641993820150034 0.3141688596240831 0  0.2943117490824315 0.2130987422685822 0  0.3478153998082709 0.1666571081082676 0  0.3427990510599805 0.2575950027870776 0  0.7997118993855807 0.2216171933356366 0  
[...]
<PointData  Scalars="f_9-2"> 
<DataArray  type="Float64"  Name="f_9-2"  format="ascii">8.8101038718455571e-09  2.1537886711203575e-08  2.5797386918544600e-10  2.6498253574058129e-10  1.0476786377105948e-06  1.5968186221286964e-06  1.2043401214533388e-06  3.8144251776534449e-07  9.7740804570324348e-08  5.7776470091108576e-08  4.3661859830457454e-08  5.5401166331789186e-08  8.9054882413984634e-08  2.9080056188171699e-07  1.1181326994792028e-06  1.0302426985577036e-06  2.0052424224088776e-08  4.8997380539231583e-07  2.5163503255429050e-07  1.9587176217022152e-07  1.1692409710082267e-07  2.7006631985998813e-07  2.6016078954183223e-07  8.6179181494693985e-07  1.1039047597658043e-06  9.0877267998790287e-07  8.2591311184113688e-07  1.6058400786271564e-08  1.6330432231521848e-08  2.3878477495680492e-06  8.9163016989651230e-07  1.7298479786482160e-06  2.7513172005664282e-06  2.7592789034535614e-06  8.5324091320506841e-09  1.8958563706755198e-06  1.3730961186321381e-07  2.2582955750482372e-09  2.1276370904581017e-09  3.6718130158844073e-09  2.5548663385744259e-07  1.6224517229882041e-07  8.0582871427021413e-08  2.2663422923435145e-06  5.8055496058822361e-07  7.6214295222283172e-08  5.7103566322469402e-07  2.5032377767640875e-06  8.1365624993993525e-07  1.2768575384670912e-06  6.8505380747919931e-07  6.5070293590268812e-07  1.0139463708669854e-07  4.5559297889721671e-08  1.1061348363137497e-06  2.6054201982545256e-06  9.9445215731254240e-07  1.6023351447451818e-06  1.7932479703852786e-06  1.1677111348721271e-06  1.4216345959192272e-06  2.4583041669692915e-06  3.8847345321055165e-07  2.5824952744109898e-07  2.5372183100584073e-08  2.8709501764808000e-07  4.7627500870887226e-07  2.1512579718504712e-06  8.8290067636721881e-07  1.2276258327099092e-08  1.9686613901503269e-08  3.0045714464274565e-08  4.7523907617266216e-07  1.7948380359066253e-06  6.1612638159147686e-07  1.7037931783025588e-06  4.6341527646239496e-08  1.6868274600409155e-06  1.4518122415533140e-06  1.1384382218718597e-06  1.1286142215915681e-06  2.1083877630217605e-06  9.4294042242810217e-08  6.3711057642610579e-07  1.7615056922047011e-06  3.7772753079494213e-09  1.9129272352357163e-06  1.4936811610415782e-06  2.5300320658436741e-06  1.3442305159010610e-06  1.6103711321323705e-06  3.6331689153146881e-07  6.4627603341035956e-08  6.5759791714523981e-07  1.9854912321425699e-06  2.3496950450383145e-06  2.0791353592350925e-06  1.4863398075055802e-07  2.6143220617736041e-06  2.8219558250322083e-07  8.8753110648946129e-08  6.4868123337996915e-10  5.6879778734380747e-09  9.2435547444975834e-07  1.2829795361339698e-06  2.0133791597394479e-06  1.6063907228192090e-07  2.1677469286928697e-07  1.5962868318529597e-07  1.0345778618899573e-06  2.3620936334494508e-08  2.2012722474578028e-07  1.4972615822712386e-06  2.1177700392969766e-07  2.3894343255185775e-06  2.2245198250860363e-08  1.7880829928932437e-06  1.7875357779812006e-08  1.6832337583410660e-06  2.2570858112596900e-06  1.4918705105306497e-06  1.0330876506287172e-06  1.9324155740476497e-06  2.0124578937843858e-06  1.2624019563245281e-06  2.4467056755583473e-06  1.9295101056743327e-06  1.1995119781156363e-06  2.4827550860499615e-06  6.6705144723239100e-07  1.9228348344117328e-07  2.3972412369848035e-06  2.7420783340999231e-06  8.6261804483105656e-07  4.1555453010662679e-07  2.5715795411198178e-06  2.4088663125398443e-06  3.0619930591592759e-07  2.2676590421106938e-06  1.5591484423065765e-08  9.2297683749169651e-09  1.7486528560554874e-06  4.8383526809442211e-07  1.1166353534239746e-06  4.1460809355784965e-07  7.7061782146204328e-07  5.5041364317434902e-07  3.6041505858039363e-08  7.3603566273471670e-07  7.1337957194238136e-07  4.0218112496830609e-08  6.6840983927023054e-10  8.1318714137601396e-07  7.6327450655726352e-07  3.4035482194143172e-07  1.3984746654393451e-07  1.8966194568060694e-07  8.4366225947086330e-08  3.9574596950049398e-08  1.1137398175936171e-06  6.0400652527984445e-07  4.1879415648938932e-07  9.4799642602581780e-07  1.4820399884692827e-07  5.8084996218813023e-09  6.5272325125535759e-09  1.3478574012580380e-06  1.3197530202580417e-06  4.8876947787111283e-07  4.6970422118931177e-09  1.6170064121309279e-06  2.7304850843688829e-06  1.0814079980051397e-06  1.1742488994781848e-06  1.7083285139538987e-06  2.7444638271256052e-07  1.4285557673229060e-06  2.2613194863058570e-08  5.9873500480687952e-08  8.7970566475942719e-08  2.2251783735757348e-07  8.5350358781751001e-08  1.1059235523547469e-08  1.3587629338075671e-06  1.1779206306193321e-06  2.3313930712745020e-06  1.1854387710971962e-06  8.5570019635590915e-07  1.1500047332285108e-06  2.6454633698953438e-06  6.6601774990230965e-08  1.0403165322810776e-06  2.1215094719213242e-06  2.4134823804634569e-06  2.2480048481488324e-07  6.2197773179677937e-07  8.2344953909316235e-08  9.5669473208088533e-07  1.9803005475144915e-08  5.2408080131875894e-07  1.9097757535380103e-06  6.9996714378780597e-07  1.3068856999889773e-06  1.8518068125767546e-06  2.1301970803532516e-06  2.1993705751341092e-06  2.3599776436445452e-06  2.2579460194467571e-06  2.9282093818924247e-07  4.4644015783909737e-07  8.9974000721139698e-07  5.7793521412220796e-07  1.0575265926700431e-08  9.3374456903720936e-07  7.0404107126081374e-09  2.5271512223786235e-07  7.6502894026364815e-07  1.0093457057543329e-06  1.3522651649555019e-08  3.0003428272222131e-07  2.2885260415776330e-06  2.0295479870369098e-06  2.5559656329109581e-06  2.4280148569489619e-08  1.0456273872829589e-06  1.5821972330522159e-06  2.5276622245760020e-06  1.0747644225326762e-08  2.2598479863588709e-07  1.4129372811543172e-06  2.0718770012729813e-06  1.9726321654500507e-06  2.7182920837241785e-06  2.2478278623698555e-07  1.2508281109191761e-06  1.6848793024918939e-06  1.7534780597085515e-06  1.0283397148769434e-06  1.3255847700053482e-07  3.3886853386085440e-08  8.6262529223871565e-07  2.4113834136498667e-07  2.0797345698753217e-07  2.0879785857676107e-07  1.0928963140962864e-06  1.4155347818945743e-06  1.0610724173182969e-06  1.3443071353226805e-06  1.9620844360297848e-06  7.7959921995856521e-07  3.0279555317127168e-08  1.7534669587098912e-07  1.2072119564103072e-06  2.2968173664837744e-07  1.4646511135945295e-07  8.0690604101847490e-08  1.0048276504279059e-09  1.9521389112602534e-07  1.6204277324551278e-07  1.3177983885930728e-07  1.3889965167052109e-06  1.1662430969636184e-06  9.4195833043136485e-07  2.4252043154894071e-08  1.9091431452113023e-06  2.1892090706267462e-06  1.6932220775885581e-08  7.0199913350016545e-09  1.0449571327299174e-09  2.0961663074786181e-08  1.1085852009317710e-07  2.8072563954059847e-06  1.2125287019906265e-07  1.7577876567291228e-06  2.6687989444848896e-08  1.5426522023130719e-08  1.2593151129326666e-06  1.3747310677923530e-06  1.0126771244090912e-06  1.8700602803625335e-06  1.2516914803079175e-06  5.3426014297801786e-07  7.0492273215329412e-08  3.8332923710032907e-08  2.5035204006722195e-06  8.4517920315167295e-09  8.2892898275122538e-07  2.6629784666927533e-06  2.2900204422799681e-08  1.7755971905785974e-06  7.5581537573964649e-08  2.5269755454429036e-06  1.7331005857894610e-07  1.2068602224536892e-06  1.0036151944811315e-06  3.4467391846879642e-07  2.8213690095726596e-08  2.3548506618311629e-07  2.0713333641080537e-06  8.9395820598544665e-07  3.8334395194578283e-07  1.7525709731437205e-06  4.2254388185802804e-07  2.5137477168837540e-06  1.7769057843373458e-06  6.5567044094632792e-07  1.7353818828111010e-06  1.8115920228559850e-06  1.1249813339635690e-06  2.3491870851787853e-06  9.1811138172498602e-07  8.7619931449340857e-07  2.6487413704590892e-09  2.4425572645653603e-06  2.1375595207696457e-06  2.6571385839044853e-06  1.6179728917526352e-06  1.7511660387324818e-06  2.5431938769416887e-06  6.4770835023052083e-07  3.8231991159534945e-09  1.7866821160010028e-06  1.2292573661891623e-06  1.8859681174953998e-06  4.3702190940072803e-07  1.9883202882669061e-08  1.2004827864832841e-07  3.6476263801393234e-09  1.2063249923838492e-09  5.9124724254623302e-09  6.3538158742478589e-08  7.9972320754584630e-07  3.3832479631145413e-07  5.2823382491099872e-07  6.3758615843234416e-08  1.3402764620846563e-07  2.6388712395239062e-06  2.7083035303086621e-06  6.5899425156829840e-07  1.8766690436788281e-06  4.9581915544801818e-07  7.9470969418218144e-07  1.9762272006316090e-07  3.0954014237275701e-07  8.8170963176510449e-07  9.3810541295961104e-07  9.8189430637230241e-10  9.9041323298028978e-10  1.0081772015866400e-08  2.0467397048436209e-06  1.1963694619162245e-06  2.3808765387883473e-06  1.8232673427454657e-06  1.6999649764798957e-06  1.4700179202367128e-07  2.1552815263752093e-07  4.9512711034185658e-07  2.9302526884416557e-08  2.0491363428819014e-06  1.9337466389781508e-07  5.6431081828724224e-08  1.3441389538711824e-06  5.5093397814139426e-07  4.0005325927112244e-07  2.1993567457342096e-06  3.6110486660028557e-07  6.5824861899231492e-08  5.2335010496680468e-08  7.7352003197493028e-07  2.2438130062472895e-06  1.2014133365865114e-06  3.4899703180894589e-08  8.9832194624331480e-07  1.6406683439711683e-07  2.4519242027528057e-06  1.2486469991160500e-06  1.7985205766582345e-06  2.6572323617400753e-06  5.5049924911749405e-07  7.5915342433452137e-07  2.5105512985112698e-06  2.1127702394591978e-06  2.1752107883391792e-06  2.0505386254186129e-06  2.5665148388708233e-06  2.8396438765285803e-08  1.2645450646067179e-08  1.9812365642789464e-06  1.7942925245404807e-08  2.6476760337378596e-06  2.5930300924765562e-08  7.9392271842683384e-08  2.4496263470910155e-08  9.6641875405255419e-08  1.5447167539799325e-06  6.5209649769949015e-07  3.6131888034108531e-07  1.1684123234216996e-06  2.5145830861970933e-08  2.1479645948451599e-06  2.9671745104876580e-07  9.8300095293756989e-09  8.1243687334107122e-09  2.2628241751355252e-06  2.1222060489430066e-06  1.3960799829703043e-06  2.5384803276710899e-08  5.9093211927879642e-07  1.7566873787659859e-07  3.5155763970644699e-07  1.7876893704258833e-06  9.0201630072558743e-07  8.2254245416596119e-07  2.3277003113598007e-06  2.0836176158953540e-08  2.1312697929927780e-06  1.3426790974099834e-06  2.2985661559803350e-08  2.2456511844097351e-06  1.3689703690512454e-07  8.6533225945033793e-08  2.2093330896977021e-06  1.2897744706503592e-07  1.8052545607824257e-06  1.6081730341997657e-06  8.7314831895546131e-07  2.2125066119185267e-06  7.7114590265601355e-07  1.3181903669135762e-06  1.9086194306231789e-06  1.0999815150295134e-06  1.4477161057922936e-08  6.8906800447497582e-07  1.1352025142905733e-06  2.7529425792823359e-06  9.9089813347562850e-07  2.1227138934499853e-06  1.9211003917749360e-06  1.1072262634424903e-06  2.5770338315379316e-06  1.4427656381291467e-06  2.2969886809698051e-06  1.3894130482460025e-07  4.5020101220143755e-08  2.4257017962244237e-07  1.9684477975118054e-06  2.0679414793173167e-06  3.6194213200065276e-08  1.7685433664925595e-07  1.1388400921678410e-06  8.3163564217223951e-07  1.2166240164257025e-06  1.5956750927547040e-07  4.9018847742377366e-07  2.0273693913761877e-08  2.1913814523379271e-06  4.4835310857485782e-07  2.0537102946417848e-06  6.6771791914263121e-07  2.3870163092695131e-06  5.2935545408557351e-08  1.5759930741109746e-06  5.4681239796878749e-08  8.9296874244880760e-08  1.6108359754628163e-06  1.6371629309111023e-06  1.8297747177708321e-08  2.6747291402795974e-08  1.3597647571543760e-08  3.9496083219469818e-07  1.0251725950244284e-06  2.5678706611649755e-06  2.8034102362087343e-06  2.8318173178198688e-06  7.9730271805617648e-07  1.4124761000751834e-06  1.2096117734212937e-06  1.4662958011830338e-06  1.4201184802918457e-06  1.2157492363127190e-06  1.1716904955535245e-06  4.9132840438985862e-09  1.2094875565332047e-08  1.4059184767552731e-06  2.0674453953568522e-07  2.3513039054233182e-09  2.3754163232611917e-06  2.6403273163159055e-06  2.5312839764070388e-06  3.6675167592677354e-07  7.6134583535582261e-07  1.3825161085202094e-06  2.4501459700382842e-07  1.8959827217217759e-07  2.1346782479953658e-06  1.9420764121644510e-06  1.9833309409160866e-06  1.8044542030978258e-06  1.1582272386199812e-06  1.0403785627486401e-06  1.1156019754584827e-06  8.6626907425204462e-07  1.0357417184400451e-06  1.6398951237416936e-06  2.5061754413703923e-06  2.0345166984613340e-08  1.0121503963694890e-06  8.8474830960641671e-07  2.8111840006999169e-07  2.0712412616489821e-06  1.1772885222003045e-06  2.5904559650251145e-07  2.3380780748100075e-07  4.7098331432595813e-07  1.0174316592095451e-06  3.7428770175066561e-07  3.8221498854032911e-07  4.9055017227133228e-07  1.1938223772489788e-06  2.7212238292915812e-06  6.1415615015552790e-07  1.7635842029350511e-06  1.9945606909224069e-06  1.6967152340539774e-06  2.0397296164607151e-07  1.3192057775532912e-07  8.6681566798606309e-08  1.4570401427607892e-07  9.5682450527853106e-07  1.1058272997708001e-06  1.2030242219876657e-06  3.3770971633305468e-07  9.8193339643614011e-07  1.1568369944570247e-06  3.5907719654240071e-10  1.1524688904114521e-09  1.1116829229064739e-06  8.3141282549134161e-07  6.4623450129313423e-07  1.1677195894955260e-07  1.0000764376084353e-06  1.1279498917221020e-07  8.0332702954808559e-07  7.6542897530582239e-07  7.0369981422911404e-07  3.8735095558075144e-10  1.3045372448654491e-06  1.5044900294507313e-07  2.8937734727124539e-07  1.7373004197706796e-07  6.6918977767654540e-08  1.0207106761960671e-07  1.7991822968606134e-07  2.7383705450930732e-08  6.1966211872528688e-07  9.5839654255487472e-07  2.0822164000073079e-07  3.1950633889484773e-07  2.1185510019366771e-07  5.5396556819804567e-07  4.0995745174333617e-07  5.4697065481674408e-07  1.2511343496492689e-06  1.1092567432308637e-06  3.3125723257021139e-07  9.5937428237242882e-09  1.0802538176182616e-06  3.6076318203927935e-09  9.9988083516134704e-09  2.4767712058402423e-07  6.2891966578463417e-08  9.8125474134760778e-07  1.9583641657284306e-06  2.6519738643354655e-06  4.4443755679067588e-07  2.7141892376222580e-06  2.5204166630718432e-06  1.5342440804223906e-06  1.3420212114486596e-06  1.4440539304202940e-06  3.2456612553921887e-08  9.6340174917195145e-08  1.2948746391743972e-06  8.4731949836571201e-07  1.2081481872871445e-06  1.8702694910431211e-07  1.3864020005964959e-06  2.3182436610260060e-07  1.1557577455761791e-06  3.7979127939613441e-07  1.4649600500926920e-06  2.6929648552413921e-06  1.4144355500210351e-07  7.1565518820975580e-07  2.4643889080342172e-06  1.4740717948312008e-06  8.6767071292191683e-07  1.8761671119695801e-08  2.3940664707424801e-07  4.7680985775750967e-07  4.1408948171811919e-07  4.6738110178725643e-09  1.6672672116966476e-08  2.4078233331081707e-06  6.8693869089692816e-07  2.4693851037807025e-06  3.3572088999634720e-08  1.5668747983640254e-06  2.8770931666642343e-07  2.6852563110833955e-07  4.0412568610618455e-08  1.2829394331542041e-08  1.8070136822424245e-07  6.2785981243821405e-07  1.5106852923622635e-06  2.4665212891511878e-06  4.3032944133758971e-08  1.0635438379933804e-07  2.2395406938641130e-06  2.3465700817920254e-07  8.4134060357448443e-07  5.7320012405938262e-07  6.3101689524539104e-08  9.6660079856755988e-09  4.4700333916240513e-07  2.7060244923284505e-06  1.8149373345431892e-06  1.2165023194069995e-06  1.3358126436336757e-06  1.2103336548489180e-06  8.2270405160326624e-07  9.6297487791339722e-08  3.3634170466938125e-08  1.4910443423439658e-06  5.5133729679825158e-07  1.2272311391364907e-06  6.4113770133701319e-07  1.2838165696789392e-07  2.3230676419795691e-06  4.8957315158087725e-07  2.5819599572482424e-06  2.2673079728937820e-06  2.2970090798765683e-07  1.7058410974345530e-06  2.5670600779081623e-06  7.3550464008245981e-07  1.3273457352510904e-06  4.8377601824810297e-08  1.0938602672278063e-06  7.0669190196486071e-08  2.6948192068202455e-06  1.9478243175571561e-06  5.4529802501446735e-07  7.4007724494244195e-07  2.1126452642419666e-06  1.7127330871710502e-06  4.3883808065007968e-08  9.2799057539152802e-07  7.7685222012136069e-07  2.7284355317420104e-06  2.2910958592279754e-06  2.3811126712040505e-06  1.6647567742951474e-06  1.2300345290074421e-06  6.4188224330897264e-07  4.4860443865165928e-07  3.8587285897557167e-08  7.2625364031035330e-07  1.3367506867691691e-08  2.0902409323664503e-08  2.2782163514553574e-08  1.9887355319101000e-06  1.5271164239044364e-07  1.7482140509152775e-06  5.3882211856489160e-08  4.0706853517774212e-07  9.5488825763769344e-07  1.7662317695877894e-07  1.0955937148757153e-07  1.1859678224915515e-06  9.5456952664116358e-08  2.1075615480741237e-06  9.9201086415771119e-07  2.1129718936774027e-07  1.4845218493850797e-06  6.5440098694792030e-08  8.3190066643494921e-07  1.8273962049718299e-08  5.5652912247523679e-07  2.3319683360728609e-07  7.3042528055363388e-09  2.1918285811674340e-06  1.1264472652453949e-07  2.5988072740972554e-06  1.5132032190862848e-06  3.0165532313968488e-07  8.0810532210468531e-09  1.5878680377801663e-06  1.2834670527415822e-06  2.3886373500370353e-06  2.3099118655706527e-06  1.6095189373466347e-06  1.4149477808516506e-06  1.5947269256366849e-06  2.3328716485038107e-09  2.1764910481370876e-06  4.4110229080508522e-08  2.0151521366052417e-06  6.1281355322831343e-08  1.1037288877777113e-07  3.3699977788458668e-07  2.5604479949444836e-06  2.6437936110112675e-06  2.5352116414159293e-06  2.0372931256864168e-06  2.4206127315960070e-06  8.7875079829631816e-07  1.6278255695547351e-07  1.0286117419429900e-06  1.1064576352986080e-06  1.0363503373171555e-06  2.4649637579577633e-06  1.8965589626928659e-06  2.4383301250416108e-06  2.5074136294318815e-06  1.7378206989366355e-06  1.3996521799360046e-06  4.5183846270448528e-07  2.5135967774873853e-06  8.4258252323561133e-07  7.2733748836757328e-07  1.2271343014369757e-06  5.4187482624229769e-09  1.5741685995664010e-07  2.2081750359397895e-06  2.5462667191455187e-06  1.3571023395228582e-06  1.0550576322093104e-06  9.1913300617571804e-07  3.9065156817273505e-07  2.5068440953569721e-06  1.4186937732157347e-06  1.4330433701488449e-06  1.7313869969840019e-06  8.6747568645119204e-09  1.3191952650481190e-06  2.2120542936190101e-06  6.4663597524337145e-07  2.1235384126014303e-06  1.0647861907583063e-06  3.5234143167142782e-07  2.0038704835246723e-06  1.5586865318593049e-06  4.0403824310485827e-07  1.5383365705915000e-07  1.2398994106954835e-07  7.4830370815467571e-09  1.8058474354766513e-08  5.6226118726577497e-09  2.2971275470451981e-07  4.5337838211561858e-07  5.2875885767365538e-08  2.6837594722712009e-06  1.1439114189523288e-06  1.6440333754046282e-07  1.2147917620785133e-07  1.5323690824640618e-06  2.2324999132177165e-06  2.4607415081472832e-06  2.1017100602130608e-06  2.6695089500385168e-07  2.5525972886347104e-06  1.4754717396828127e-06  1.2617940041510692e-06  1.1625688085944596e-06  2.6754520138325889e-06  2.1594204589260993e-07  3.1784653497447396e-07  1.4578961573059381e-06  6.1646460953687957e-08  2.0250447894309883e-07  3.7588797416712666e-08  5.8230716913648524e-08  2.0064784592521372e-07  1.6131414155265716e-06  1.4133013394630906e-07  2.4194666292451913e-06  8.0015796852961147e-09  2.0558678418090965e-08  1.9552289490682843e-08  1.0969317835997226e-06  6.8737670604686715e-07  1.2791985941812756e-07  1.6746197385277647e-07  1.3662973212408058e-08  2.0783326366252910e-06  1.0387444069872699e-08  3.0712889107991922e-08  1.2047948925149777e-07  1.3974700006949721e-07  1.9155813981840191e-07  3.9195622801807722e-08  6.0638346077386133e-07  2.2883690376292669e-06  1.7805227233730552e-06  2.0404822738850979e-06  1.7906266672716542e-06  1.5423577055731184e-06  1.8787943798408167e-06  7.2688363274741510e-07  2.6448825631289602e-07  2.0741581602676778e-07  5.6409025508229758e-08  2.0965269719463796e-08  3.0175964255625431e-07  1.0899300602916486e-06  3.7770151232706868e-07  2.1578148400159538e-06  7.8739723900442121e-07  1.0946143788086623e-06  1.9487072662064977e-06  2.2033438106203030e-06  4.6406406326944484e-07  3.6568785645333499e-07  2.1680136115355188e-07  1.8871142345839005e-06  2.1241798074503531e-06  1.4516765789190995e-06  1.4161146533155763e-06  1.965913317351058