<?xml version="1.0"?>
<VTKFile type="UnstructuredGrid"  version="0.1"  >
<UnstructuredGrid>
<Piece  NumberOfPoints="2446" NumberOfCells="4585">
<Points>
<DataArray  type="Float64"  NumberOfComponents="3"  format="ascii">0 0.41 0  0 0 0  2.2 0 0  2.2 0.41 0  0.2404508497187474 0.2293892626146237 0  0.25 0.2 0  0.2404508497187474 0.1706107373853764 0  0.2154508497187474 0.1524471741852423 0  0.1845491502812526 0.1524471741852423 0  0.1595491502812526 0.1706107373853764 0  0.15 0.2 0  0.1595491502812526 0.2293892626146237 0  0.1845491502812527 0.2475528258147577 0  0.2154508497187474 0.2475528258147577 0  1.1 0 0  1.1 0.41 0  0 0.205 0  0.55 0 0  0.55 0.41 0  0.275 0 0  0.275 0.41 0  1.65 0.41 0  1.65 0 0  0.8250000000000001 0.41 0  0.8250000000000001 0 0  1.375 0 0  1.375 0.41 0  1.925 0 0  1.925 0.41 0  1.5125 0.205 0  1.7875 0.205 0  0.6875 0.205 0  0.9625000000000001 0.205 0  1.2375 0.205 0  2.2 0.205 0  0.4687002074688797 0.2068568464730291 0  1.99375 0.2152743902439024 0  2.0625 0 0  2.0625 0.41 0  2.2 0.3075 0  0.4125 0 0  0.4125 0.41 0  1.7875 0.41 0  1.375 0.1486128048780488 0  1.5125 0 0  1.7875 0 0  1.5125 0.41 0  0.8250000000000001 0.2613871951219511 0  0.9625000000000001 0.41 0  0.9625000000000001 0 0  0.6875 0.41 0  0.6875 0 0  0.1375 0 0  0.1375 0.41 0  1.2375 0 0  1.1 0.1486128048780487 0  1.2375 0.41 0  1.65 0.1486128048780487 0  1.126715909090909 0.2793064024390244 0  1.676715909090909 0.2793064024390244 0  0.8517159090909092 0.1306935975609756 0  1.348284090909091 0.2793064024390244 0  0.34375 0.3032389320646208 0  1.894702181800738 0.1282910975492754 0  2.092797818199262 0.1282910975492754 0  1.85625 0.3075 0  0.61875 0.3075 0  0.61875 0.1025 0  0.3648540804333487 0.1240075933101478 0  0 0.3075 0  0 0.1025 0  2.099172119769978 0.25625 0  0.48125 0.09238439620688085 0  0.5781001037344399 0.2059284232365146 0  0.48125 0.3196743479159776 0  0.7265881057911006 0.3055240343720796 0  1.99375 0.08395950269330846 0  1.459960956013612 0.3075 0  1.569025960719943 0.2986889805672169 0  0.75625 0.08213100772579164 0  1.03125 0.3278689922742084 0  0.923871252904788 0.3078247185783941 0  1.959375 0.3126371951219512 0  1.749222215368287 0.1025 0  1.275777784631713 0.1025 0  2.2 0.1025 0  1.225938124459196 0.3075 0  1.550777784631713 0.1025 0  1.000777784631713 0.1025 0  1.44375 0.07430640243902442 0  1.16875 0.07430640243902437 0  1.899250267340833 0.2229966846119207 0  0.1020898364287272 0.3140258291809757 0  1.766482954545455 0.2934032012195123 0  0.3405058858996321 0.2119987970531874 0  0.7710785630958338 0.1710968191298857 0  1.046078563095834 0.2389031808701144 0  0.2 0.3400647632937836 0  1.421109702350723 0.2261157654379721 0  0.2800464974185557 0.08982544815605742 0  0.098916018031319 0.09171660955420841 0  2.13125 0 0  2.118919042110979 0.3422084711244843 0  1.30625 0.41 0  0.89375 0 0  1.597888256393107 0.2173787389261347 0  0.20625 0 0  1.829299675393195 0.07400700849299596 0  1.71875 0.41 0  1.16875 0.41 0  2.038220665644273 0.332420740103091 0  0.34375 0 0  0.417496017710808 0.2696595573092803 0  0.2 0.07687845740457822 0  0.9295982307099278 0.1343158415898188 0  0.07390688010811153 0.1697064032433452 0  0.5238366813727013 0.2578302467013575 0  0.05452951551825875 0.25625 0  0.5229630068078351 0.1548816096928243 0  1.452769549894695 0.1548122580621249 0  1.369219062229598 0.07430640243902442 0  1.30625 0 0  0.8504409521244898 0.3356935975609756 0  0.8821881244591965 0.205 0  1.720943423819132 0.1714577452753128 0  1.157188124459196 0.205 0  1.094219062229598 0.07430640243902437 0  1.03125 0 0  1.304056576180868 0.1714577452753128 0  1.67579304192913 0.07430640243902437 0  0.2751941921308361 0.3346083473122598 0  1.209670467133757 0.1362100266964769 0  1.025335513626278 0.1700681449722324 0  0.7562500000000001 0.41 0  1.58125 0 0  0.7567170593862014 0.2409196493502535 0  0.6926714215682891 0.1272249611432207 0  0.4139715849905988 0.3397932387114203 0  0.9840787304190477 0.2717749043358119 0  0.06875000000000001 0.41 0  0 0.35875 0  0.9281250000000001 0.06276726142697993 0  0.5507396469029935 0.3219409231578227 0  0.5504468037989405 0.09136885600634273 0  1.58125 0.41 0  1.631724228912893 0.3381867502687533 0  1.825608881788174 0.14499488549201 0  1.85625 0 0  1.44375 0 0  1.44375 0.41 0  1.85625 0.41 0  2.13125 0.41 0  0.7562500000000001 0 0  0.89375 0.41 0  0.4812500000000001 0 0  0.34375 0.41 0  0.4812500000000001 0.41 0  0.20625 0.41 0  0.06875000000000001 0 0  1.16875 0 0  0.61875 0 0  0.61875 0.41 0  1.03125 0.41 0  1.71875 0 0  1.99375 0 0  1.99375 0.41 0  1.340625 0.3489494290853124 0  1.134375 0.3489494290853123 0  1.700180620188976 0.3438659752031281 0  2.135782184673599 0.07126652247502523 0  1.668441847249787 0.2129203728327609 0  1.295782514339747 0.2378437748815763 0  0.8233075729931248 0.06842334294821524 0  1.409375 0.3520314716057996 0  0.403505597322782 0.182067236678212 0  0.378125 0.05794951541303489 0  0.3043468223249023 0.1518321115979534 0  2.129248544730567 0.1906135162504124 0  2.060771381434487 0.1989445750470348 0  2.013252586573865 0.1496169464686054 0  1.942766402200229 0.1734448904596831 0  1.895522487186454 0.06076163953489683 0  2.069553871656643 0.06605731020975725 0  1.274680914880868 0.3520219391081363 0  1.614713220494657 0.09473434380863296 0  0.7899021319497519 0.3149123934144827 0  0.69518737419149 0.0634051089053758 0  0.2971740475496061 0.2592172353407536 0  1.72990325744076 0.2380068107952482 0  1.356580098625191 0.2120393231351682 0  2.034370752044885 0.2668681600792073 0  1.51768709249349 0.3426260931494756 0  1.561883724969884 0.1650446847858835 0  1.197344062229598 0.2523725417393646 0  1.804085235518364 0.3468178408964637 0  1.817887819205233 0.2589243285818559 0  1.905897727272727 0.3485060975609756 0  0.6719798073392919 0.2688965171178177 0  0 0.05125 0  0.653125 0.35875 0  0.6396896119294488 0.1627615407790282 0  0.4274150154087412 0.1242548552168279 0  1.192836486056382 0.3562350748565544 0  0.8279124365364005 0.183856489168822 0  1.097485222388854 0.2083571153401724 0  1.28257088594801 0.2944411014911587 0  1.474860187679412 0.2504218616229368 0  1.406767003493824 0.2829282258560709 0  0.446875 0.04619219810344041 0  0.515625 0.04585361801037557 0  0.592043440706648 0.05125 0  1.845656689180403 0.1998310418452388 0  2.144958525570388 0.2909790873294231 0  0.6171090763650112 0.2492366900333857 0  2.2 0.15375 0  0.5145586920831158 0.3648371739579888 0  1.57794966442982 0.3540357145964566 0  0.721875 0.3633107922168974 0  0.0496154796471391 0.333125 0  0.5843750000000001 0.3662560860076676 0  0.5810878747760798 0.1474002776121195 0  1.508991196088596 0.1421783375065625 0  0.8840670607017558 0.2640994375393898 0  0.09776612425612034 0.2204896805326566 0  1.50436820029908 0.06143401634903343 0  1.223857000523521 0.0823554862453532 0  1.153316824384777 0.1289850171317837 0  2.148922302309752 0.1258841779285271 0  0.309375 0.04312325590431198 0  1.621993280276081 0.2841214267927899 0  1.550118654119087 0.2461998729100966 0  1.327182649291491 0.1216967252533594 0  1.051977450479407 0.1221382572915816 0  1.753125 0.04556020050186112 0  1.271875 0.04556020050186116 0  0.9816084133102366 0.05126138213476004 0  1.039051841454368 0.0572224914831029 0  0.9719230514536006 0.3480477870845102 0  1.94956388244759 0.1180512551534177 0  1.949997712993411 0.04965831614304109 0  1.771961817615021 0.1530278789497521 0  1.909246823951428 0.2812757146784527 0  0.2459536687882397 0.04668633953831142 0  1.948575539857022 0.2445328248721197 0  1.697271520964565 0.1233917627620729 0  0.7964897648514618 0.1211426571931604 0  1.065625 0.3689344961371042 0  1.085849084308977 0.3170853572226867 0  0.4702981435440001 0.260434880697798 0  1.577403511714593 0.05463601888079143 0  0.05622663515370135 0.05493816910862376 0  0.3267207591099919 0.3566194660323104 0  0.9003051618565143 0.3564049499960621 0  1.751571320346033 0.3651102912045228 0  0.1583785085108421 0.2994699345738728 0  0.1455283439499995 0.3542795598723423 0  2.2 0.35875 0  0.2347662494194072 0.298325008655211 0  0.1527284455616188 0.1065771775690181 0  0.1382139529076665 0.05427454456341477 0  0.8749341636311069 0.05110114999892954 0  0.643661668713109 0.05693499781019222 0  1.466879772203159 0.3611261772912453 0  1.990280163552011 0.3564754268533217 0  1.17471064520912 0.2990917256188288 0  0.5202693090594349 0.206382495511728 0  0 0.25625 0  2.2 0.25625 0  2.2 0.05125 0  0 0.15375 0  1.853978576207987 0.35875 0  0.9787513713939683 0.1487523696999336 0  0.240625 0.3722153812029779 0  1.515638456102889 0.2882700110184686 0  0.09048297387599738 0.3637717362208066 0  2.150453692751374 0.2387066338105111 0  1.323782677156475 0.04897634338873398 0  0.8074131292871642 0.3624701995505916 0  1.409375 0.03715320121951221 0  1.406484531114799 0.1087852750766809 0  1.134375 0.03715320121951218 0  1.627401732573545 0.04552157221025036 0  0.1170173172005315 0.1427610859166811 0  2.045405893604797 0.1105340662939892 0  1.255408269734577 0.1577307500159216 0  2.028125 0.03707597992059326 0  0.4743610090857199 0.1421513964721819 0  0.9354010469015898 0.250631300585664 0  0.04420832937638274 0.128125 0  0.8922386349349938 0.0992956419364831 0  0.1197849154434487 0.2663398672460083 0  1.248258025468107 0.2565907092181813 0  0.3746885856929528 0.370723531618974 0  1.203125 0.0366132337404304 0  0.5724622277005015 0.2751253816079333 0  0.3365425205162783 0.08395777655057959 0  2.072662025974815 0.2975086504196739 0  0.4581080832182547 0.3648371739579888 0  0.3874522734668214 0.2295447548840689 0  0.7827853612484443 0.04106550386289586 0  1.887722846421017 0.1760882698830035 0  1.472640588990488 0.1118278026240017 0  1.865937103925594 0.2604137786483804 0  1.463913572748262 0.2030442564990043 0  1.376426316059077 0.3186741374914345 0  0.6641993820150034 0.3141688596240831 0  0.2943117490824315 0.2130987422685822 0  0.3478153998082709 0.1666571081082676 0  0.3427990510599805 0.2575950027870776 0  0.7997118993855807 0.2216171933356366 0  
[...]
<PointData  Scalars="f_9-2"> 
<DataArray  type="Float64"  Name="f_9-2"  format="ascii">1.4197014649814810e-12  1.5371272926260592e-11  1.1519302564493254e-44  1.0976544528287074e-44  1.1988972822912190e-07  1.6444344605844137e-07  1.3142865134233121e-07  4.8510501875113307e-08  1.6548955872894137e-08  9.1752529905840929e-09  6.2207430853669333e-09  7.6709094071296704e-09  1.2911027295105176e-08  3.7584279956573651e-08  1.0112279033827928e-19  7.5445443526229417e-20  1.3618265880667249e-10  7.9421583184044169e-11  6.3210243598288530e-11  2.8646443355389935e-09  1.2805241698891549e-09  1.0044121067318934e-31  8.1099397761458007e-32  1.2923106991592386e-14  1.4781188724797207e-14  1.7202785880845040e-25  1.2701787408488863e-25  4.6910576223465853e-38  3.2767162585694582e-38  6.4355963920750937e-27  2.9157574860090949e-33  3.7118523025520930e-10  3.5157254360025042e-15  7.0660723544807824e-21  5.0203654316415442e-43  8.3627800317040808e-08  3.3102023047027918e-38  2.2172174606813251e-41  9.9698456643220954e-42  2.4061023418282692e-43  1.6081669633794434e-09  9.3978915860125961e-10  2.2051004940384765e-35  6.4104240599591316e-24  1.3585274035509710e-28  3.7925757102309745e-35  1.3882508480523726e-28  1.1047443054943217e-12  3.8395038080321395e-17  5.4530478448838509e-17  1.3468836778185908e-12  2.1773465495250532e-12  4.6871058286241521e-10  7.4486149269947484e-11  1.7872605113688662e-22  4.7550974107135803e-18  1.4139314772088955e-22  3.9452725787916922e-30  9.9668340119473311e-19  7.7605559879201788e-31  3.3122197510765531e-13  1.9433063148942337e-23  3.1136255985003120e-08  6.0997529917794116e-36  9.5992483351703480e-41  3.9699105876316288e-35  5.5596159716098721e-10  7.9956622811035430e-10  5.8481668276591906e-08  2.2666888252312386e-11  4.3655974622381075e-11  9.1254942686314820e-41  7.2018256687061209e-09  1.0926907423187576e-08  5.0293792078175508e-09  2.2005946531398435e-11  1.7126373288117996e-38  5.0225256487805378e-26  1.8892295078816039e-28  5.5674181855035765e-12  4.4331596928785479e-17  7.9513154876649055e-15  1.3840258403805242e-37  1.4119843151914983e-32  6.5446490104075758e-22  3.1947161028661327e-43  6.2294450088341675e-21  5.5949542492397840e-28  2.9855535833571635e-16  9.6612206758413941e-26  7.2674175195569424e-20  5.9846496708153207e-36  6.8859849950206841e-10  5.5894747444362093e-33  1.7472216204122650e-07  1.4113112821441592e-11  6.5419435239776073e-17  3.9332652932502597e-09  6.5755926049261297e-25  2.6332852602480967e-08  2.2932536487542528e-09  2.5039275482952913e-43  1.0860195296447841e-41  4.1578781255205775e-24  7.9999765837653137e-16  6.8306980248215829e-29  1.4176827367494850e-09  1.2455366215304525e-34  2.6995159883133509e-33  3.8931733471097548e-21  1.0996173644593932e-39  3.1506595984511182e-09  3.6111574423328805e-08  1.1003406402056022e-08  1.1714242791105052e-14  2.5196238470403866e-10  1.5964357221863096e-08  1.0918571262624556e-10  2.3170099544361761e-08  1.2746022871671641e-25  4.0066116141095834e-24  3.6763536295956871e-24  8.4900267746277025e-14  1.2754308839128153e-13  9.7471894425797519e-32  3.4878275017449438e-19  2.5775203069163991e-18  2.9526481742806159e-18  2.4725631019065171e-22  5.0551670406810780e-31  1.0380393211910104e-08  2.1710423470002980e-20  1.8157493586467074e-16  9.5992409955987265e-14  4.5159346049023727e-30  2.2338106484062136e-11  1.6159316035984194e-10  7.6164026755652778e-09  8.6015503127512528e-16  9.2167847354821209e-12  3.8563918757224661e-12  3.0725496787357832e-15  1.4140914409759334e-09  2.4279581505674726e-09  3.5332628246617548e-30  4.0159039246828790e-30  2.9929491509259318e-34  1.1700524382128200e-36  2.4158666952795559e-27  5.5314493031901334e-27  1.3941690970583913e-36  3.3140272060402554e-43  1.9783264477435460e-13  8.0395812310248758e-16  4.3745401485142463e-10  1.6018767481855498e-09  2.8039192191736989e-10  3.8959179386357412e-10  9.3619204231785224e-11  5.4049214468218700e-21  1.4617927188316021e-11  1.0564360089644093e-11  1.8905531210992752e-18  2.2694435512814629e-33  6.5798885295121620e-40  7.1387711754189828e-40  1.0060288249101210e-23  2.2823276040937499e-19  8.6961221043219272e-32  4.7431302666467914e-42  1.6121968612209640e-30  3.7853965246783888e-22  2.8238595625171157e-13  3.0160990217851472e-25  1.2037032623122001e-07  1.0439118793214012e-08  1.2991946051423014e-07  1.7744801744705422e-41  7.9208515216260175e-40  9.5976727824867771e-39  5.5801598245663742e-37  2.6340364624117870e-36  1.7719656336865958e-40  2.5226106176246219e-22  1.7203891596746336e-29  1.6343060513312770e-12  2.3975747319071029e-11  9.9754518090457951e-08  6.0299576900570600e-32  1.8338159533859150e-23  2.8897244832393768e-39  1.4222266374533055e-27  4.6667929589780604e-28  4.3375366621793037e-20  3.2351113360759199e-34  3.9879430010180887e-34  1.2043664175290386e-36  3.2002127612681411e-10  1.7813808863541329e-11  3.2619108381344597e-11  1.5627002462244514e-09  2.8650037443557151e-08  1.2068075798491817e-20  1.4378243771598584e-12  6.4259123821841036e-18  4.6550572122028879e-22  3.9439714457203205e-26  9.7029598382055792e-25  3.4898598053034517e-09  1.0210753790723389e-09  2.3304019607548161e-10  1.0984085991912134e-34  5.5812129617945669e-42  2.4109613136861120e-09  4.1311217792068053e-43  6.7072250340412171e-10  3.9695678780375354e-29  3.4741126563874171e-12  3.0749026397038490e-11  1.3663859458135759e-10  6.2587698904889303e-09  6.4939300782678325e-27  8.4786317126306171e-14  5.0829297214094909e-10  3.0019696691943557e-27  6.4149175202227097e-21  3.2990263453238756e-19  4.3591767293605265e-42  7.9256405892875170e-09  1.3327316294529228e-29  7.7253646030607117e-28  5.7111650178691083e-23  3.8432930128422869e-17  3.6504527786970536e-33  2.4879740767509623e-22  2.2114473282783343e-16  1.9651684278106607e-17  3.6221428340462298e-16  2.6911503400609346e-37  8.8032232402339530e-38  5.7703614463760868e-33  2.5604195057830302e-36  6.6462544059608112e-09  3.6027614212783749e-37  2.6434816529157973e-31  2.9041523855325405e-12  2.9435682281039626e-18  4.1382048579903907e-18  2.7667417602690133e-08  5.6580865382997778e-29  1.7469898943740296e-10  6.2360728999203066e-09  5.7286188868114635e-15  2.6180797236260521e-33  6.2704581851771076e-09  5.6756177091226418e-10  9.1778344863050611e-44  1.8305173027586357e-08  9.6246058571980887e-09  2.1128535492774607e-09  2.0289698467419024e-14  8.0865601226425352e-11  1.2533976429155076e-26  9.6914553319010043e-39  7.9600145924135802e-20  3.8647895339151594e-08  8.1402833479520270e-11  4.0477380716012997e-43  1.2086889036394586e-43  1.2449649375415780e-10  1.5490331003205870e-35  1.4012446453564590e-15  1.9235982398612300e-09  3.3394294374070155e-27  7.8773661639438922e-11  5.4780965425419739e-42  2.2298965298848096e-23  1.8812315472314676e-13  1.6863846929707938e-25  9.7699185905440272e-25  1.1511947785308483e-19  3.1532576021811259e-30  4.1019627165443400e-09  1.2336874325750986e-39  2.5822265991041461e-21  7.1834945271757558e-40  2.9858437676022506e-08  1.0625142509995324e-14  2.1814517151258496e-10  3.5750968659006488e-14  2.8183344070335100e-09  3.5541465489006519e-21  3.6544600523275107e-09  4.9672504650768955e-21  4.0894182406301476e-09  2.5550198409848407e-08  2.8165087846242803e-40  1.9211790503953943e-09  1.0846458221468044e-07  4.8525188761704399e-13  1.1836791270333285e-35  3.3100214154767405e-26  3.2369810100655121e-35  7.6621181954856604e-26  3.0174299518059807e-24  1.2900608893962089e-10  1.7626098532695619e-07  1.2794454644981239e-07  9.4269099201721211e-08  4.4764681478359036e-12  6.4090626318777769e-32  4.9294428879430766e-33  1.0644823293564799e-41  9.6994737074340641e-11  2.8334016574693504e-11  5.6731667849787268e-16  9.7003536815524969e-17  7.3819279451470294e-18  2.6199824919338565e-24  7.4080407483302408e-08  9.9671316254694185e-41  4.7760443317787861e-29  1.7772888354264121e-09  1.2470129138738620e-10  4.2264104070884003e-34  1.3317594874080518e-10  3.5052016836844887e-38  1.1098000158151970e-42  2.0485882325105400e-42  7.2565777789254727e-41  4.2063588772076369e-10  2.6425200557045646e-12  6.2513374421536762e-31  1.4392012678992671e-33  1.1195900428351913e-38  8.5562885274914026e-10  4.4476066763411403e-24  4.8837616510669681e-20  6.7929226043255964e-28  1.2052041736556979e-29  2.2631219294905649e-29  2.3948751725647186e-15  9.0001744064313422e-33  4.2798715593109207e-32  1.1081869096242563e-17  3.0542669539396862e-17  4.3239766197284409e-43  3.7478544282429727e-43  2.5751645532276716e-12  1.6959014710404388e-10  7.3223727318377013e-13  2.2349003100758436e-14  1.1520366665248383e-13  8.4543093955195261e-30  3.3029191959732753e-34  2.1077026477456295e-35  3.1098870798462486e-29  6.5166808215383472e-38  1.0900563318908197e-07  2.3802399244291222e-08  8.5112673072932515e-36  1.7409087580197696e-18  2.0313149879020847e-32  2.9884597888857988e-31  1.3499683029408693e-15  1.3468164531121797e-08  1.8416590812477948e-10  9.0666734298115957e-40  2.0080128048323042e-16  7.4087837317183695e-28  1.0102252729590576e-21  1.1849689565689850e-40  1.0778488660010497e-26  2.4390048377775220e-09  2.3272456115598127e-17  7.9673879013170794e-08  9.1518910608386049e-29  5.0573763393512572e-12  2.5083990584118869e-08  1.2956798197505149e-08  4.4734039227653342e-11  6.2102785216093766e-19  3.8489604246863240e-13  1.2475510654417737e-18  8.6412211585874095e-19  1.1643653395115491e-09  2.8751717599615317e-42  5.3991411609690384e-23  8.1701762401217177e-39  2.0651062695646524e-13  1.9002378593286635e-37  1.1668800769185657e-35  2.4022847867483225e-37  5.8093103813911404e-37  4.3400265716645744e-27  8.2935801729517973e-32  2.7508468833417712e-31  2.5499516994726143e-30  2.9899535736247373e-11  3.0228325139563655e-14  2.9448250210121637e-08  4.2793195953392768e-12  4.4971283029519766e-40  9.0044534559834070e-25  4.0364868332297659e-10  3.3537767187096297e-16  2.2911234542370109e-10  3.2938330139952980e-10  1.2130672779286512e-08  2.1246099933146280e-33  3.5364440104220885e-11  6.9551269790127278e-16  2.2449641931057421e-11  2.0815740341255110e-26  1.2153071325855718e-10  2.2964816397087630e-19  1.5299478571532160e-13  1.6919861225145148e-39  1.5781181572677355e-25  3.0116366463568603e-09  5.9061516821984628e-10  5.2034662633282607e-27  1.5628021400979471e-09  5.0521545735959043e-09  5.3973107272080370e-08  1.1919977471538227e-08  1.7108707894402623e-08  6.7827510383209974e-08  9.7007262324795965e-09  1.7463514621147538e-08  1.3675818847922278e-14  4.2984195751313443e-11  3.3731300933703879e-28  2.3885170071587049e-32  9.7648373315827633e-22  4.2092086852476215e-32  3.5353568040536740e-22  6.6102765487369527e-24  2.1675881923191684e-24  6.2240972369951111e-18  6.3769343535094819e-31  4.1304637295659901e-23  9.0158356757759159e-38  1.5935373600871498e-09  1.1341247777572913e-08  3.9247095255352894e-20  3.6937569296892416e-21  5.8495340782161223e-10  7.8403239127711939e-09  2.7384693819485282e-29  7.4946591805223909e-31  5.9118926621772771e-08  1.7787207932574099e-08  6.1284086445716362e-08  4.3407144924103841e-11  4.2510070857721746e-08  1.7103821179417867e-30  8.1377060883959982e-29  2.5874672814479426e-28  5.5943317142666307e-10  9.2949871875159814e-36  4.3175531132417315e-12  7.0149240064861383e-40  5.1913116349011339e-39  9.2476742368381848e-23  1.6274113803782345e-07  4.0515950223821712e-41  3.3737579145440989e-41  2.6630643140760889e-42  2.6614898853040540e-33  4.5961893602066488e-28  1.6294752425183677e-16  2.7651390002869996e-16  9.3074378813347673e-16  1.3636812126624699e-11  5.6186217342840977e-25  1.2434752813054866e-18  4.7556176237327300e-16  2.7588107709103536e-15  4.3292953925031263e-15  4.4775513815148319e-14  1.4295066273489734e-42  1.8565492467790110e-41  2.4549219028251966e-17  2.6042800299776153e-37  7.0569382306972945e-42  1.8949145816746150e-11  3.7890751330098018e-20  1.6453034532667568e-14  4.6821958002067676e-35  1.2019971800785143e-33  6.9780265082573924e-09  9.3108087337095952e-09  2.1450000717811891e-09  7.4238001209737735e-15  1.7519669858440783e-07  1.9337409813211925e-15  3.2695972355220687e-12  2.6608009377173061e-20  2.1676969813693638e-20  2.3775341549264776e-23  5.7936242862302547e-25  1.0435588372889060e-24  3.4582612895027575e-19  4.0296263303663181e-25  2.4168690126400282e-41  4.9581815132970818e-22  3.9116602261921549e-14  4.2439507680673181e-10  1.6546921100162777e-07  5.7896325864056952e-08  4.2713444654338358e-09  2.3410659981980007e-09  2.0983047820741127e-09  5.1563142234797641e-09  5.1584127127095114e-10  1.4667129433279770e-10  6.7733146679952826e-35  7.8026800738639763e-22  2.4793784723656676e-15  3.2247633828336864e-09  7.7529018636118899e-09  2.3712384878227484e-09  5.3129401789776644e-25  1.0349543034453636e-32  3.4976191940997430e-38  4.7593846642902633e-39  1.5345379962601623e-37  1.8381502622933673e-23  1.7111643264277277e-19  2.2317044048469504e-20  1.3711625114163628e-09  6.1821139903765943e-25  5.5101537576041251e-19  4.3433209137885989e-44  1.9484906664152223e-42  2.4441641152313883e-20  3.2562316029027340e-26  8.7783931095721540e-28  3.6630270445942853e-34  3.8223704805957703e-19  5.4495592358045439e-34  4.5722878488249779e-13  1.7273687726240432e-26  6.5180015655550167e-13  5.5214010717140950e-44  2.5694902725277858e-16  1.3467408683586081e-09  8.2450189747102078e-10  5.6122514216311142e-10  2.3325480603824567e-10  8.0119943194539348e-10  2.0341826784112802e-09  2.7177169395100449e-11  5.0846605614682911e-12  5.5467342309434863e-14  3.2722521264653232e-09  2.2926101367625931e-11  1.2894214700427826e-10  3.2741693220438169e-11  1.8240720112206945e-10  3.1155989780707097e-12  1.4633687586686010e-17  7.0514556693286188e-22  6.5919285999866048e-31  5.0680929602725439e-39  2.5264195868122027e-23  1.1645906465719903e-40  4.5062570465580332e-39  1.3148068017103837e-32  7.8785438542627567e-39  1.2854418750107064e-12  2.1664978650037599e-25  1.6530800454531229e-19  2.6010195597417316e-08  5.3607364871580080e-23  1.2613761972028312e-22  6.6313969760245425e-20  8.0350774704890093e-28  7.7073458033028961e-27  4.3524353391067359e-37  8.6278629470457324e-09  7.7137985680430922e-26  4.7235429468245393e-26  2.5363934832914735e-31  4.9706801582272379e-36  2.2121408572140875e-31  1.8071749191635319e-08  6.6142908004217090e-10  2.0724322174151377e-34  1.4644733595030659e-30  1.6208555070415629e-22  8.4058922194504837e-37  1.4365056740777954e-27  4.4406598740736335e-13  1.6323217942367603e-17  7.4470910306366361e-17  1.1327513678062019e-10  2.3120604173929711e-08  6.6210292549366091e-30  3.1911208648708688e-11  9.9900079606567307e-41  1.0463401608736901e-40  5.6109498597664752e-17  6.5322071867622426e-12  1.2560439300215924e-23  7.0213022661761342e-10  1.4878877894325977e-21  1.5460164771553528e-36  2.4612379545809397e-36  9.8382850927032587e-11  8.5761341331120137e-41  4.7837176162195297e-09  4.9746295974973362e-10  8.7115057635447231e-11  4.5196905742279932e-14  1.8962163897283615e-39  9.3285422293788887e-35  3.4899153101942153e-17  9.3227771070179018e-35  2.0259006225232245e-31  1.2692039273063265e-34  9.3441156775775183e-38  1.7584786688798454e-42  1.2970784782353364e-08  5.0455805674154607e-15  2.3294369447274655e-28  6.7483259255356447e-13  1.9748182523986431e-15  9.7498098450093148e-29  3.1437521120592014e-30  1.0237073843957931e-08  3.1478795974040758e-37  1.4558124197441406e-07  3.4898631074881832e-29  1.3848350641280462e-07  6.7480303976562595e-08  1.1512508750009091e-09  2.1329369726187064e-09  6.9049207240953836e-30  1.5121151664744562e-18  2.0939182206077639e-27  1.0807017256340700e-08  2.1400898131557727e-23  2.5586921300776265e-15  3.8468805719097193e-12  4.5271461335624406e-09  1.8578417169592235e-36  5.9030589278600582e-11  2.4199915842660625e-37  1.1207500011516417e-20  4.9709348922896433e-14  3.6544109069446094e-29  7.4110851677196840e-34  1.1541257540745523e-17  1.9830598315247837e-20  3.2953481061466493e-09  1.9081236993867295e-32  5.5774475122201747e-11  2.3389533906152626e-21  1.1201548357922873e-20  1.7260887433891229e-19  2.3148134908135925e-30  1.7672825732625961e-26  1.3785464659072075e-33  1.3632288798647152e-34  1.3981619828717213e-40  1.3323012417256396e-27  5.8097181191831474e-39  1.6761822405333151e-11  3.0499589289452035e-11  1.2046988313139516e-27  3.3202637691393391e-36  1.8053224303868105e-22  8.6695995066629973e-10  5.3891213154103997e-09  2.7828749697866860e-28  2.4172507479653519e-09  1.3401916029990391e-09  1.2436048511393331e-08  4.6181669249603730e-38  5.0059045302282854e-08  2.7582651604994285e-24  1.2669437940321797e-08  1.0697244730560328e-21  8.8178297688850553e-36  9.5005401466147789e-16  1.0034622730397817e-10  5.8399011708089030e-08  4.5911884428963492e-09  3.3365036503188076e-41  6.7980527504819495e-12  6.2824059833516110e-35  1.2803043258836915e-20  1.0465326029771614e-29  1.3383192745992054e-35  4.4101382587101664e-43  3.9175662337147052e-18  9.0975910517728064e-10  5.9989322540787827e-18  1.5199623947957089e-18  4.8720802818105035e-13  4.0140695326156821e-30  8.8749894722007826e-10  7.9237270593608082e-43  1.9679713625514501e-16  5.5352435215761945e-40  1.1436997571648755e-16  4.0795385307499932e-10  1.7071859972631848e-09  6.5197844602408518e-36  3.3314569871118350e-14  3.0020322526320719e-24  1.3761887003421366e-25  3.2977871674269590e-26  1.6273140556104702e-26  2.3665636417262316e-26  1.1619632858527884e-35  8.1338968580825391e-14  1.0798827581047417e-11  1.2350400196972267e-16  1.2984054747959458e-11  5.0686363036023881e-13  4.4211517466302164e-24  6.1598436343258903e-25  1.3224179833514457e-12  6.4857297923957948e-19  2.0938437439938155e-35  7.4066536691377623e-15  9.6401675492653630e-10  1.8118402936203457e-09  1.3354285398754141e-11  3.1989917909053156e-43  4.5709633442986567e-09  2.2596118089578348e-21  7.1707248959516520e-22  5.9010416717157557e-14  5.4229439898744289e-23  5.9853090073872155e-13  2.0602637492318982e-32  3.2158527185985149e-13  9.2481211303933191e-19  2.9620385540780410e-10  1.0833890627442722e-07  1.1664598950849334e-39  5.5633526511712057e-18  1.3414285249982108e-12  1.1486856756510153e-09  2.8207566005654907e-26  3.9375736880923805e-30  5.6988005730465873e-09  1.1655853779203313e-11  8.0142916565063078e-12  2.7081970324654441e-09  1.8487975316900471e-08  3.3544771936188780e-34  6.0156891981440949e-42  1.5144995610440738e-41  1.1161331264285527e-42  1.6848695445848969e-10  2.4679932033126448e-35  2.3738866769310462e-38  5.1314207217068266e-17  2.5959254461329780e-23  3.6758750683029589e-33  4.5378093113564372e-34  6.2023921282354469e-29  1.3930952119707788e-10  8.3852252213554269e-20  1.5488593919104100e-19  1.8890691382546371e-08  4.6308841806881172e-23  4.5545370335244042e-21  1.7583346847746568e-17  6.8662548449933271e-18  1.3360555553129295e-12  7.1363938767050502e-10  2.0933350442419517e-09  2.3491018089003414e-22  8.4324742609213376e-10  6.6782892364836073e-09  1.4172736915250435e-10  1.7654079068386123e-10  4.3810098544644546e-09  4.5077411262339540e-19  2.4576136106061922e-09  3.3107101970590379e-11  4.1116762053804516e-43  1.3837933675461914e-10  1.4040222580336692e-10  9.1068065066581959e-29  9.5378308473175545e-30  1.2927708998430943e-08  1.2974369268020950e-36  3.5434307385769701e-11  6.7016219882921663e-08  9.3597272778678245e-12  2.2105589761788491e-10  5.2150956796529656e-09  3.8692090303231982e-09  5.3249368085122322e-37  1.5462805639664986e-40  1.7116177797660518e-09  2.4602368429245663e-27  2.9032871282178581e-28  2.0423034839001018e-28  1.1536640527533847e-23  1.9072032796380424e-20  2.4500420315260010e-29  5.8663993663168858e-34  1.0505301029402572e-10  8.4140339845056185e-34  4.9650420383047330e-37  8.5442997339737232e-38  1.1625446450206712e-08  5.3312896148964795e-08  1.7096007890892570e-32  4.9963126428668505e-12  9.8849712147308434e-33  4.2740025184222490e-21  2.4967888433642370e-25  3.0851439489385187e-14  2.5574831316018262e-10  1.7891593322075848e-35  4.4069732069018775e-09  9.4777778539856958e-22  2.2473449940382595e-08  2.2852597373742131e-08  4.9821893102204850e-31  1.109314173866847