<?xml version="1.0"?>
<VTKFile type="UnstructuredGrid"  version="0.1"  >
<UnstructuredGrid>
<Piece  NumberOfPoints="2401" NumberOfCells="4608">
<Points>
<DataArray  type="Float64"  NumberOfComponents="3"  format="ascii">0 0 0  0.001070538380698371 0 0  0.004277569313095364 0 0  0.009607359798386061 0 0  0.01703708685546806 0 0  0.02653493525245065 0 0  0.03806023374436157 0 0  0.05156362923366253 0 0  0.06698729810778931 0 0  0.08426519384873815 0 0  0.1033233298543955 0 0  0.1240800962605269 0 0  0.1464466094067445 0 0  0.1703270924499866 0 0  0.1956192854956637 0 0  0.2222148834902257 0 0  0.2500000000000299 0 0  0.2788556548905322 0 0  0.308658283817491 0 0  0.339280267348458 0 0  0.3705904774487813 0 0  0.4024548389919803 0 0  0.4347369038900211 0 0  0.467298435384978 0 0  0.5000000000000517 0 0  0.5327015646151253 0 0  0.5652630961100813 0 0  0.5975451610081212 0 0  0.6294095225513188 0 0  0.6607197326516399 0 0  0.6913417161826045 0 0  0.7211443451095605 0 0  0.7500000000000597 0 0  0.7777851165098603 0 0  0.8043807145044185 0 0  0.829672907550091 0 0  0.8535533905933287 0 0  0.8759199037395413 0 0  0.8966766701456674 0 0  0.9157348061513193 0 0  0.9330127018922625 0 0  0.9484363707663832 0 0  0.961939766255678 0 0  0.9734650647475827 0 0  0.9829629131445586 0 0  0.9903926402016341 0 0  0.9957224306869181 0 0  0.9989294616193084 0 0  1 0 0  0 0.02083333333333333 0  0.001070538380698371 0.02083333333333333 0  0.004277569313095364 0.02083333333333333 0  0.009607359798386061 0.02083333333333333 0  0.01703708685546806 0.02083333333333333 0  0.02653493525245065 0.02083333333333333 0  0.03806023374436157 0.02083333333333333 0  0.05156362923366253 0.02083333333333333 0  0.06698729810778931 0.02083333333333333 0  0.08426519384873815 0.02083333333333333 0  0.1033233298543955 0.02083333333333333 0  0.1240800962605269 0.02083333333333333 0  0.1464466094067445 0.02083333333333333 0  0.1703270924499866 0.02083333333333333 0  0.1956192854956637 0.02083333333333333 0  0.2222148834902257 0.02083333333333333 0  0.2500000000000299 0.02083333333333333 0  0.2788556548905322 0.02083333333333333 0  0.308658283817491 0.02083333333333333 0  0.339280267348458 0.02083333333333333 0  0.3705904774487813 0.02083333333333333 0  0.4024548389919803 0.02083333333333333 0  0.4347369038900211 0.02083333333333333 0  0.467298435384978 0.02083333333333333 0  0.5000000000000517 0.02083333333333333 0  0.5327015646151253 0.02083333333333333 0  0.5652630961100813 0.02083333333333333 0  0.5975451610081212 0.02083333333333333 0  0.6294095225513188 0.02083333333333333 0  0.6607197326516399 0.02083333333333333 0  0.6913417161826045 0.02083333333333333 0  0.7211443451095605 0.02083333333333333 0  0.7500000000000597 0.02083333333333333 0  0.7777851165098603 0.02083333333333333 0  0.8043807145044185 0.02083333333333333 0  0.829672907550091 0.02083333333333333 0  0.8535533905933287 0.02083333333333333 0  0.8759199037395413 0.02083333333333333 0  0.8966766701456674 0.02083333333333333 0  0.9157348061513193 0.02083333333333333 0  0.9330127018922625 0.02083333333333333 0  0.9484363707663832 0.02083333333333333 0  0.961939766255678 0.02083333333333333 0  0.9734650647475827 0.02083333333333333 0  0.9829629131445586 0.02083333333333333 0  0.9903926402016341 0.02083333333333333 0  0.9957224306869181 0.02083333333333333 0  0.9989294616193084 0.02083333333333333 0  1 0.02083333333333333 0  0 0.04166666666666666 0  0.001070538380698371 0.04166666666666666 0  0.004277569313095364 0.04166666666666666 0  0.009607359798386061 0.04166666666666666 0  0.01703708685546806 0.04166666666666666 0  0.02653493525245065 0.04166666666666666 0  0.03806023374436157 0.04166666666666666 0  0.05156362923366253 0.04166666666666666 0  0.06698729810778931 0.04166666666666666 0  0.08426519384873815 0.04166666666666666 0  0.1033233298543955 0.04166666666666666 0  0.1240800962605269 0.04166666666666666 0  0.1464466094067445 0.04166666666666666 0  0.1703270924499866 0.04166666666666666 0  0.1956192854956637 0.04166666666666666 0  0.2222148834902257 0.04166666666666666 0  0.2500000000000299 0.04166666666666666 0  0.2788556548905322 0.04166666666666666 0  0.308658283817491 0.04166666666666666 0  0.339280267348458 0.04166666666666666 0  0.3705904774487813 0.04166666666666666 0  0.4024548389919803 0.04166666666666666 0  0.4347369038900211 0.04166666666666666 0  0.467298435384978 0.04166666666666666 0  0.5000000000000517 0.04166666666666666 0  0.5327015646151253 0.04166666666666666 0  0.5652630961100813 0.04166666666666666 0  0.5975451610081212 0.04166666666666666 0  0.6294095225513188 0.04166666666666666 0  0.6607197326516399 0.04166666666666666 0  0.6913417161826045 0.04166666666666666 0  0.7211443451095605 0.04166666666666666 0  0.7500000000000597 0.04166666666666666 0  0.7777851165098603 0.04166666666666666 0  0.8043807145044185 0.04166666666666666 0  0.829672907550091 0.04166666666666666 0  0.8535533905933287 0.04166666666666666 0  0.8759199037395413 0.04166666666666666 0  0.8966766701456674 0.04166666666666666 0  0.9157348061513193 0.04166666666666666 0  0.9330127018922625 0.04166666666666666 0  0.9484363707663832 0.04166666666666666 0  0.961939766255678 0.04166666666666666 0  0.9734650647475827 0.04166666666666666 0  0.9829629131445586 0.04166666666666666 0  0.9903926402016341 0.04166666666666666 0  0.9957224306869181 0.04166666666666666 0  0.9989294616193084 0.04166666666666666 0  1 0.04166666666666666 0  0 0.0625 0  0.001070538380698371 0.0625 0  0.004277569313095364 0.0625 0  0.009607359798386061 0.0625 0  0.01703708685546806 0.0625 0  0.02653493525245065 0.0625 0  0.03806023374436157 0.0625 0  0.05156362923366253 0.0625 0  0.06698729810778931 0.0625 0  0.08426519384873815 0.0625 0  0.1033233298543955 0.0625 0  0.1240800962605269 0.0625 0  0.1464466094067445 0.0625 0  0.1703270924499866 0.0625 0  0.1956192854956637 0.0625 0  0.2222148834902257 0.0625 0  0.2500000000000299 0.0625 0  0.2788556548905322 0.0625 0  0.308658283817491 0.0625 0  0.339280267348458 0.0625 0  0.3705904774487813 0.0625 0  0.4024548389919803 0.0625 0  0.4347369038900211 0.0625 0  0.467298435384978 0.0625 0  0.5000000000000517 0.0625 0  0.5327015646151253 0.0625 0  0.5652630961100813 0.0625 0  0.5975451610081212 0.0625 0  0.6294095225513188 0.0625 0  0.6607197326516399 0.0625 0  0.6913417161826045 0.0625 0  0.7211443451095605 0.0625 0  0.7500000000000597 0.0625 0  0.7777851165098603 0.0625 0  0.8043807145044185 0.0625 0  0.829672907550091 0.0625 0  0.8535533905933287 0.0625 0  0.8759199037395413 0.0625 0  0.8966766701456674 0.0625 0  0.9157348061513193 0.0625 0  0.9330127018922625 0.0625 0  0.9484363707663832 0.0625 0  0.961939766255678 0.0625 0  0.9734650647475827 0.0625 0  0.9829629131445586 0.0625 0  0.9903926402016341 0.0625 0  0.9957224306869181 0.0625 0  0.9989294616193084 0.0625 0  1 0.0625 0  0 0.08333333333333333 0  0.001070538380698371 0.08333333333333333 0  0.004277569313095364 0.08333333333333333 0  0.009607359798386061 0.08333333333333333 0  0.01703708685546806 0.08333333333333333 0  0.02653493525245065 0.08333333333333333 0  0.03806023374436157 0.08333333333333333 0  0.05156362923366253 0.08333333333333333 0  0.06698729810778931 0.08333333333333333 0  0.08426519384873815 0.08333333333333333 0  0.1033233298543955 0.08333333333333333 0  0.1240800962605269 0.08333333333333333 0  0.1464466094067445 0.08333333333333333 0  0.1703270924499866 0.08333333333333333 0  0.1956192854956637 0.08333333333333333 0  0.2222148834902257 0.08333333333333333 0  0.2500000000000299 0.08333333333333333 0  0.2788556548905322 0.08333333333333333 0  0.308658283817491 0.08333333333333333 0  0.339280267348458 0.08333333333333333 0  0.3705904774487813 0.08333333333333333 0  0.4024548389919803 0.08333333333333333 0  0.4347369038900211 0.08333333333333333 0  0.467298435384978 0.08333333333333333 0  0.5000000000000517 0.08333333333333333 0  0.5327015646151253 0.08333333333333333 0  0.5652630961100813 0.08333333333333333 0  0.5975451610081212 0.08333333333333333 0  0.6294095225513188 0.08333333333333333 0  0.6607197326516399 0.08333333333333333 0  0.6913417161826045 0.08333333333333333 0  0.7211443451095605 0.08333333333333333 0  0.7500000000000597 0.08333333333333333 0  0.7777851165098603 0.08333333333333333 0  0.8043807145044185 0.08333333333333333 0  0.829672907550091 0.08333333333333333 0  0.8535533905933287 0.08333333333333333 0  0.8759199037395413 0.08333333333333333 0  0.8966766701456674 0.08333333333333333 0  0.9157348061513193 0.08333333333333333 0  0.9330127018922625 0.08333333333333333 0  0.9484363707663832 0.08333333333333333 0  0.961939766255678 0.08333333333333333 0  0.9734650647475827 0.08333333333333333 0  0.9829629131445586 0.08333333333333333 0  0.9903926402016341 0.08333333333333333 0  0.9957224306869181 0.08333333333333333 0  0.9989294616193084 0.08333333333333333 0  1 0.08333333333333333 0  0 0.1041666666666667 0  0.001070538380698371 0.1041666666666667 0  0.004277569313095364 0.1041666666666667 0  0.009607359798386061 0.1041666666666667 0  0.01703708685546806 0.1041666666666667 0  0.02653493525245065 0.1041666666666667 0  0.03806023374436157 0.1041666666666667 0  0.05156362923366253 0.1041666666666667 0  0.06698729810778931 0.1041666666666667 0  0.08426519384873815 0.1041666666666667 0  0.1033233298543955 0.1041666666666667 0  0.1240800962605269 0.1041666666666667 0  0.1464466094067445 0.1041666666666667 0  0.1703270924499866 0.1041666666666667 0  0.1956192854956637 0.1041666666666667 0  0.2222148834902257 0.1041666666666667 0  0.2500000000000299 0.1041666666666667 0  0.2788556548905322 0.1041666666666667 0  0.308658283817491 0.1041666666666667 0  0.339280267348458 0.1041666666666667 0  0.3705904774487813 0.1041666666666667 0  0.4024548389919803 0.1041666666666667 0  0.4347369038900211 0.1041666666666667 0  0.467298435384978 0.1041666666666667 0  0.5000000000000517 0.1041666666666667 0  0.5327015646151253 0.1041666666666667 0  0.5652630961100813 0.1041666666666667 0  0.5975451610081212 0.1041666666666667 0  0.62
[...]
<PointData  Scalars="f_4296079"> 
<DataArray  type="Float64"  Name="f_4296079"  format="ascii">1.4915328387764558e+02  1.4915724673523849e+02  1.4917397073168684e+02  1.4922002979408785e+02  1.4929132108197689e+02  1.4943661713234590e+02  1.4967531936823957e+02  1.5002454241143820e+02  1.5071326534217602e+02  1.5131010444185580e+02  1.5201682770039594e+02  1.5315936070132415e+02  1.5443275653025449e+02  1.5615827017047326e+02  1.5717308163360272e+02  1.5875870268887039e+02  1.5993076083453954e+02  1.6232405455708604e+02  1.6507886797932716e+02  1.6701247015987929e+02  1.6849567246659572e+02  1.7068974572253455e+02  1.7476713997731281e+02  1.7736335446775732e+02  1.7940741870423221e+02  1.8233990905401456e+02  1.8394093651588045e+02  1.8680104568754649e+02  1.9073561330060153e+02  1.9415769213064206e+02  1.9726496924669800e+02  2.0044757020986481e+02  2.0366434525954944e+02  2.0625580011411071e+02  2.0870812125777439e+02  2.1058193576902030e+02  2.1249000349976376e+02  2.1398853169638818e+02  2.1518207908742116e+02  2.1631082940779649e+02  2.1719028197717932e+02  2.1772782857113799e+02  2.1806098845584458e+02  2.1826152112384094e+02  2.1835730421540251e+02  2.1838690173855966e+02  2.1838687859933174e+02  2.1838647401608810e+02  2.1839297362359204e+02  1.4931994489257551e+02  1.4931855786332542e+02  1.4930302621103161e+02  1.4927251568449327e+02  1.4927501859732985e+02  1.4939110529294149e+02  1.4959587310776556e+02  1.4997438194401425e+02  1.5052411354422770e+02  1.5116278416763640e+02  1.5195305682146758e+02  1.5315423666292165e+02  1.5451970533503538e+02  1.5607276443659657e+02  1.5718372702065002e+02  1.5868741154756367e+02  1.5996500401796595e+02  1.6158934308217030e+02  1.6528704112539501e+02  1.6693428668788491e+02  1.6842793420765676e+02  1.7046377542134840e+02  1.7489199130873587e+02  1.7734102184657445e+02  1.7945933401934468e+02  1.8232809470791204e+02  1.8397340310564223e+02  1.8639375482738384e+02  1.9079114016408747e+02  1.9442634991205256e+02  1.9755871157842614e+02  2.0047743741018593e+02  2.0389567610240795e+02  2.0628923743973073e+02  2.0870355906849355e+02  2.1029471268961771e+02  2.1253798152596281e+02  2.1430546104107270e+02  2.1550201309807835e+02  2.1642538803275357e+02  2.1741515035325992e+02  2.1791378563077140e+02  2.1828429493560867e+02  2.1848913389607847e+02  2.1857325041408626e+02  2.1859399686085914e+02  2.1859137267160855e+02  2.1858630149208429e+02  2.1858137776389708e+02  1.4982517697637130e+02  1.4982539692711919e+02  1.4980208735345167e+02  1.4975568429566448e+02  1.4969035972036301e+02  1.4967296459490220e+02  1.4979072124941575e+02  1.5009214795132414e+02  1.5062255428840152e+02  1.5106844180488940e+02  1.5148260200635306e+02  1.5320806485686430e+02  1.5472918955372995e+02  1.5612361422016281e+02  1.5714904882603130e+02  1.5865397968801670e+02  1.5989381443128460e+02  1.6109062591688752e+02  1.6535465318713005e+02  1.6690625517289780e+02  1.6825016129967963e+02  1.7016105992560219e+02  1.7501408036625872e+02  1.7729186225407906e+02  1.7946486799796145e+02  1.8237432947138640e+02  1.8398151433082683e+02  1.8606661324199428e+02  1.9125024765428972e+02  1.9569641169971635e+02  1.9820534899921083e+02  2.0045244485599818e+02  2.0394803896903124e+02  2.0632563840047322e+02  2.0872179314589175e+02  2.1006666444571425e+02  2.1191841228015522e+02  2.1485720342824854e+02  2.1581662707516929e+02  2.1659503653204885e+02  2.1757657177505305e+02  2.1802308640815608e+02  2.1842037817337743e+02  2.1865540600598897e+02  2.1872368415366236e+02  2.1872500392346129e+02  2.1871404031330053e+02  2.1871085650886783e+02  2.1871418444075564e+02  1.5064562212337401e+02  1.5064428118630903e+02  1.5063975839234294e+02  1.5061867414009845e+02  1.5057929581301758e+02  1.5052716743929864e+02  1.5048177580221611e+02  1.5054689102900616e+02  1.5090945994808723e+02  1.5127910557130369e+02  1.5154749525998770e+02  1.5325505729335626e+02  1.5500420254011973e+02  1.5625729114331520e+02  1.5715867099969398e+02  1.5864118676318705e+02  1.5983841503944680e+02  1.6095718071159905e+02  1.6534103952515153e+02  1.6689733291629639e+02  1.6816156079521792e+02  1.6990700768176231e+02  1.7504160278466196e+02  1.7715170810218331e+02  1.7938717325196274e+02  1.8241838115818956e+02  1.8408380989823439e+02  1.8615683740575966e+02  1.9159652944467811e+02  1.9646518198513891e+02  1.9861242421441639e+02  2.0038367616571452e+02  2.0372052020750539e+02  2.0622478465953722e+02  2.0865515634670138e+02  2.0990660078686952e+02  2.1155017369725874e+02  2.1512028593647139e+02  2.1588322134448126e+02  2.1663498942923934e+02  2.1754512396213272e+02  2.1798208420102594e+02  2.1841211896609190e+02  2.1877536135634560e+02  2.1880352940184574e+02  2.1876043203945281e+02  2.1872510113931554e+02  2.1871173316372386e+02  2.1870627271440091e+02  1.5133637939868333e+02  1.5133742643047546e+02  1.5133210631138894e+02  1.5131606002281345e+02  1.5128857312050846e+02  1.5125772682998254e+02  1.5124816262882612e+02  1.5128047685711778e+02  1.5140403823348990e+02  1.5161836852424904e+02  1.5187017966924529e+02  1.5339706118514218e+02  1.5531072396233648e+02  1.5643383508650120e+02  1.5724536492196498e+02  1.5866755109115957e+02  1.5985485716867328e+02  1.6099054845023960e+02  1.6530751730282603e+02  1.6691664726531044e+02  1.6815155198633664e+02  1.6969899921093571e+02  1.7503332382051354e+02  1.7692316574825412e+02  1.7926812651983795e+02  1.8243493272451508e+02  1.8427034641568810e+02  1.8648192882417678e+02  1.9178941192384502e+02  1.9687835298092000e+02  1.9887369367787068e+02  2.0040966445543557e+02  2.0346200785577039e+02  2.0598459670859137e+02  2.0847473815222915e+02  2.0966234888365446e+02  2.1123666120869046e+02  2.1514272838850653e+02  2.1581475648380211e+02  2.1657779196333271e+02  2.1742901538296175e+02  2.1783772586230018e+02  2.1820880488693592e+02  2.1841237700629412e+02  2.1839022687680259e+02  2.1834836358205141e+02  2.1832425353563229e+02  2.1832093417117125e+02  2.1832686873030570e+02  1.5207489916129137e+02  1.5207392558325421e+02  1.5206161304989902e+02  1.5203175303508525e+02  1.5198166032239610e+02  1.5192415962141598e+02  1.5187676242815314e+02  1.5185757675958746e+02  1.5192365950263746e+02  1.5208357343545873e+02  1.5246014619749010e+02  1.5361010926852938e+02  1.5567734351721029e+02  1.5667659070518488e+02  1.5741956702856928e+02  1.5877132924921764e+02  1.5995439367132772e+02  1.6112957450817444e+02  1.6532464839571574e+02  1.6698149131575036e+02  1.6819772629141892e+02  1.6959285010536510e+02  1.7499783338606696e+02  1.7671146835403667e+02  1.7929808648513165e+02  1.8230836972538157e+02  1.8435492827111051e+02  1.8715565399018539e+02  1.9187234976843249e+02  1.9697687694614183e+02  1.9895591947440244e+02  2.0043917682429651e+02  2.0329482664017300e+02  2.0571886727162934e+02  2.0819318042236065e+02  2.0933568070799666e+02  2.1086701931251557e+02  2.1496143810519419e+02  2.1556884906840830e+02  2.1637436896407362e+02  2.1719669763223615e+02  2.1758237192502983e+02  2.1785472253822962e+02  2.1789334490708239e+02  2.1785651229333121e+02  2.1783808914665454e+02  2.1782761507813618e+02  2.1782374506512161e+02  2.1782050967821232e+02  1.5299306479794032e+02  1.5298992546562766e+02  1.5293847358970513e+02  1.5281787248284871e+02  1.5264853796720047e+02  1.5246306781834119e+02  1.5231086483419006e+02  1.5227880365545482e+02  1.5244139097857945e+02  1.5272273905698685e+02  1.5325189638762333e+02  1.5385664677281144e+02  1.5609230009974976e+02  1.5699949622141884e+02  1.5768461204841623e+02  1.5898079316737221e+02  1.6015222408482228e+02  1.6136478444045289e+02  1.6541697086779041e+02  1.6709648684776471e+02  1.6829776146652995e+02  1.6961339630709963e+02  1.7494953990252770e+02  1.7658404169377488e+02  1.7952943165211283e+02  1.8221803180248551e+02  1.8404044700126119e+02  1.8842956555546246e+02  1.9171988777834369e+02  1.9648707715210452e+02  1.9885431963947124e+02  2.0043948369950675e+02  2.0318497305340256e+02  2.0548491376374841e+02  2.0785845812860427e+02  2.0895520611146202e+02  2.1042142094089715e+02  2.1454820093687158e+02  2.1507600480797456e+02  2.1596884146550980e+02  2.1684016970626161e+02  2.1713111135279041e+02  2.1731926409719833e+02  2.1736913963836363e+02  2.1734367795788881e+02  2.1731581833154013e+02  2.1730019318225806e+02  2.1729706698544479e+02  2.1729857548327607e+02  1.5495659900823131e+02  1.5495483111796219e+02  1.5498375956671941e+02  1.5502231234509887e+02  1.5503822686986311e+02  1.5501163531671776e+02  1.5492343176487128e+02  1.5473980319261980e+02  1.5439595683672979e+02  1.5399488780840869e+02  1.5404716204904710e+02  1.5445466519076322e+02  1.5654822452496694e+02  1.5742086499032723e+02  1.5806082492239526e+02  1.5931460703390476e+02  1.6046362610025326e+02  1.6169253709480364e+02  1.6558828656726934e+02  1.6726831277276349e+02  1.6845608117124891e+02  1.6974094729022119e+02  1.7496291029658781e+02  1.7656267550437423e+02  1.7972347721766056e+02  1.8217203353759660e+02  1.8380309936416597e+02  1.8916250775649624e+02  1.9158636135710987e+02  1.9514009289693581e+02  1.9854329591147089e+02  2.0041005021565297e+02  2.0308720825536642e+02  2.0523433918574685e+02  2.0747173302776486e+02  2.0853661555945669e+02  2.0992217528992461e+02  2.1384906935975073e+02  2.1432743502051977e+02  2.1514775135057349e+02  2.1591164363648193e+02  2.1619791939590084e+02  2.1633029822228789e+02  2.1643277051812171e+02  2.1641715002208429e+02  2.1638725213093349e+02  2.1637059387354719e+02  2.1636605802708826e+02  2.1636568561046380e+02  1.5598510896203388e+02  1.5598929616923778e+02  1.5599764936810499e+02  1.5599935959516205e+02  1.5598770398268331e+02  1.5595642729828282e+02  1.5589931867463122e+02  1.5581056099381388e+02  1.5569355409235484e+02  1.5553073139312258e+02  1.5542630875795874e+02  1.5544320732064349e+02  1.5713489302701197e+02  1.5796653889026453e+02  1.5857350243519062e+02  1.5978247399343348e+02  1.6089729583435977e+02  1.6211403353734147e+02  1.6583829343539006e+02  1.6750081585034556e+02  1.6867422999629349e+02  1.6995057825254966e+02  1.7504980074719302e+02  1.7661785196621591e+02  1.7978228403474873e+02  1.8215154553688402e+02  1.8371608999946659e+02  1.8940109682817254e+02  1.9147814855780911e+02  1.9373468914904228e+02  1.9763995910023175e+02  2.0036120179177667e+02  2.0291384474007054e+02  2.0487299444106714e+02  2.0698342868562102e+02  2.0805596883284005e+02  2.0943160977761397e+02  2.1289534989425721e+02  2.1350773989603474e+02  2.1422724205281622e+02  2.1502352160814169e+02  2.1536184585677512e+02  2.1550274546701894e+02  2.1560972047560085e+02  2.1569371383972623e+02  2.1569078828368859e+02  2.1568720022737102e+02  2.1568594871087893e+02  2.1568494810106199e+02  1.5689167211462308e+02  1.5689329035038350e+02  1.5689520088987359e+02  1.5689318511457964e+02  1.5687324113868644e+02  1.5682756127312317e+02  1.5676013353831354e+02  1.5668269823148691e+02  1.5660929863290937e+02  1.5654828308187410e+02  1.5649985408059158e+02  1.5660123360224324e+02  1.5789120425158936e+02  1.5865689557065906e+02  1.5922876771616518e+02  1.6038432752088747e+02  1.6145479147412968e+02  1.6263067020059651e+02  1.6616433724564948e+02  1.6779583537687586e+02  1.6895157087082262e+02  1.7022902863313413e+02  1.7517477693475320e+02  1.7670999177407646e+02  1.7973635360309748e+02  1.8214234819082071e+02  1.8367131277580029e+02  1.8941832308256119e+02  1.9129022399149648e+02  1.9302712926706766e+02  1.9592644841928629e+02  2.0010702447731097e+02  2.0235819432881735e+02  2.0426398278480636e+02  2.0632109449595822e+02  2.0749638493000495e+02  2.0888602843806353e+02  2.1130430873414096e+02  2.1234719702758116e+02  2.1296751975073329e+02  2.1369118030237573e+02  2.1429993754219285e+02  2.1447586048835510e+02  2.1445303102643629e+02  2.1453006543710018e+02  2.1468350021377805e+02  2.1474469260517606e+02  2.1476181709233975e+02  2.1477235916057819e+02  1.5869544990707647e+02  1.5869558331791518e+02  1.5869061007552983e+02  1.5867127648396769e+02  1.5863326976505667e+02  1.5857570444434529e+02  1.5850344493085865e+02  1.5843029363044349e+02  1.5837629252672198e+02  1.5835582610454421e+02  1.5840103978442770e+02  1.5864404872755435e+02  1.5897609875310741e+02  1.5946111680596641e+02  1.6002418494809288e+02  1.6111701676430630e+02  1.6213292338460533e+02  1.6324219019699669e+02  1.6656548545426554e+02  1.6815441668856917e+02  1.6928676823332799e+02  1.7057448002418710e+02  1.7531024728666074e+02  1.7682014221911865e+02  1.7963338327187566e+02  1.8211543821520149e+02  1.8362974144979788e+02  1.8927699219227611e+02  1.9103895416517329e+02  1.9255205197773867e+02  1.9480371348114880e+02  1.9982814215260703e+02  2.0159269123160149e+02  2.0336349121348971e+02  2.0550385835033217e+02  2.0673921809655582e+02  2.0807692595294046e+02  2.0934273888158521e+02  2.1053475453556018e+02  2.1135054807862264e+02  2.1186632502071737e+02  2.1222024077063386e+02  2.1231487190603963e+02  2.1235012163836873e+02  2.1235081190969993e+02  2.1233343866721080e+02  2.1231709147646231e+02  2.1227110530552201e+02  2.1223752537569618e+02  1.6024312268716579e+02  1.6023720550074756e+02  1.6022758275985882e+02  1.6021033872389850e+02  1.6018139797148459e+02  1.6014000451015153e+02  1.6008781814289841e+02  1.6003085280460829e+02  1.5998498432820841e+02  1.5997915900270957e+02  1.5999499880001076e+02  1.6004209973188622e+02  1.6018357961641465e+02  1.6044867291976576e+02  1.6096942070070261e+02  1.6197379952043880e+02  1.6292347589029282e+02  1.6394325161876748e+02  1.6704518962435040e+02  1.6857729838997733e+02  1.6968078133558157e+02  1.7098909055629321e+02  1.7545865483592982e+02  1.7695937541547337e+02  1.7949142789282629e+02  1.8205055564161162e+02  1.8357069143079045e+02  1.8900182428402144e+02  1.9073452557137256e+02  1.9213179089352022e+02  1.9397376936806094e+02  1.9937616654618270e+02  2.0085096233406307e+02  2.0246089275498602e+02  2.0457081961192733e+02  2.0581070610317786e+02  2.0696733373793026e+02  2.0776790269990985e+02  2.0846134606822241e+02  2.0931805677655254e+02  2.0984936486695048e+02  2.0987875559847768e+02  2.0989504413440082e+02  2.0996165751618079e+02  2.1002086559058282e+02  2.1004540946781358e+02  2.1005250203461978e+02  2.1006717660904701e+02  2.1009576614342492e+02  1.6200304017207552e+02  1.6200726025313054e+02  1.6200572633547162e+02  1.6198716910433191e+02  1.6194819296124280e+02  1.6188971133165592e+02  1.6181603139090143e+02  1.6173558139182180e+02  1.6166358252017267e+02  1.6162233887821705e+02  1.6163605339249051e+02  1.6169105587608351e+02  1.6181249413639998e+02  1.6186651583502720e+02  1.6208365665732262e+02  1.6294891404395949e+02  1.6380712470517162e+02  1.6472308650775233e+02  1.6760966792653028e+02  1.6906445536936559e+02  1.7013525939465117e+02  1.7145652032481973e+02  1.7565672660865366e+02  1.7716615842998235e+02  1.7927019147046835e+02  1.8196587204400515e+02  1.8347973996349256e+02  1.8855954704773023e+02  1.9037643317067662e+02  1.9173508071162465e+02  1.9329841053942252e+02  1.9864419401214903e+02  1.9997056797150080e+02  2.0150508430969469e+02  2.0341932735355866e+02  2.0485957155833665e+02  2.0593193280166545e+02  2.0669053423880408e+02  2.0728520934558864e+02  2.0772224353385522e+02  2.0815093806557610e+02  2.0832547172377033e+02  2.0841745187380261e+02  2.0848329338082729e+02  2.0853151959234941e+02  2.0856342525689854e+02  2.0857761462055774e+02  2.0857877451174718e+02  2.0856580304461866e+02  1.6320175900510034e+02  1.6319949183859111e+02  1.6318694822973399e+02  1.6316136256685951e+02  1.6311098503465931e+02  1.6302857241542162e+02  1.6291737748398035e+02  1.6279197268755144e+02  1.6267556373287971e+02  1.6259674211775345e+02  1.6258590571104082e+02  1.6265531700858537e+02  1.6278121177190508e+02  1.6301052114862091e+02  1.6337736474257807e+02  1.6401707486872112e+02  1.6475182103957545e+02  1.6556825404475572e+02  1.6826043219734285e+02  1.6961231158304824e+02  1.7064534016646220e+02  1.7194757360021521e+02  1.7589878737085920e+02  1.7740783985024504e+02  1.7914144286318316e+02  1.8175862040886602e+02  1.8322945583872144e+02  1.8769795612769960e+02  1.8995221412929317e+02  1.9133544073612350e+02  1.9271738880344745e+02  1.9761519550044687e+02  1.9892682573419441e+02  2.0029086887403966e+02  2.0198579730325454e+02  2.0312191698783118e+02  2.0427187138608710e+02  2.0507082730493258e+02  2.0565204453443422e+02  2.0613254318453656e+02  2.0679412284975689e+02  2.0721246300502770e+02  2.0744106062084856e+02  2.0754872982225982e+02  2.0759735683931675e+02  2.0762645529720535e+02  2.0764708516629844e+02  2.0765738257402765e+02  2.0766210151067978e+02  1.6504868799658817e+02  1.6504858575942635e+02  1.6503797211256122e+02  1.6499942516736118e+02  1.6492485567896048e+02  1.6481144275704082e+02  1.6466346710331479e+02  1.6449213001317020e+02  1.6431614847834993e+02  1.6416384814144195e+02  1.6406746433849605e+02  1.6405084411314010e+02  1.6413527915657966e+02  1.6436250895443732e+02  1.6476880242399679e+02  1.6520836364564775e+02  1.6572663183111658e+02  1.6647880509213903e+02  1.6898752401451358e+02  1.7021208871709999e+02  1.7120103434300626e+02  1.7244689000451069e+02  1.7613845660209029e+02  1.7761688270618282e+02  1.7922636683122957e+02  1.8149043214130751e+02  1.8297798548035351e+02  1.8573516906253971e+02  1.8946464512535306e+02  1.9076711745621847e+02  1.9218496627973281e+02  1.9618697081507921e+02  1.9776854891392608e+02  1.9875098133284067e+02  1.9991351454598285e+02  2.0089786526897356e+02  2.0171378363517351e+02  2.0252427923058002e+02  2.0323273789856432e+02  2.0391734520772465e+02  2.0486899548574510e+02  2.0595605935853033e+02  2.0637937569727930e+02  2.0647538825608248e+02  2.0645992748563199e+02  2.0639004467699539e+02  2.0630722609857409e+02  2.0624896465153424e+02  2.0623161931297534e+02  1.6650858031710644e+02  1.6651122894728445e+02  1.6648397714490753e+02  1.6641904306570675e+02  1.6630685231810887e+02  1.6615036207193029e+02  1.6596158157393228e+02  1.6575708987989648e+02  1.6555466081107934e+02  1.6537426067687315e+02  1.6524132925475797e+02  1.6518300873154058e+02  1.6522476935522971e+02  1.6540071741405370e+02  1.6572267877197680e+02  1.6616810829938021e+02  1.6669995494217258e+02  1.6747649373773976e+02  1.6977449887324693e+02  1.7085564856395388e+02  1.7179594799129615e+02  1.7296026591163871e+02  1.7635729089995388e+02  1.7779034618272954e+02  1.7933661809224472e+02  1.8139840108881651e+02  1.8273009252402653e+02  1.8434292606530386e+02  1.8875366430978528e+02  1.8981399111811857e+02  1.9139242191006417e+02  1.9441889442358627e+02  1.9663871809750293e+02  1.9768079383919758e+02  1.9869180352017736e+02  1.9964004282194139e+02  2.0040119782129619e+02  2.0101317027643356e+02  2.0150924111626912e+02  2.0195663829142100e+02  2.0234611066319565e+02  2.0275328093998715e+02  2.0277611600713431e+02  2.0283913677939992e+02  2.0295659811570300e+02  2.0308977900042200e+02  2.0320957919101920e+02  2.0329175019436883e+02  2.0332796725970826e+02  1.6862438835295291e+02  1.6861373280440174e+02  1.6852389774639289e+02  1.6834395681903894e+02  1.6809794752421675e+02  1.6781482853852668e+02  1.6752627255868580e+02  1.6725800227061617e+02  1.6702524041945682e+02  1.6683332873825645e+02  1.6668753659758923e+02  1.6660263786564479e+02  1.6659891809566125e+02  1.6669128803745102e+02  1.6688604111559269e+02  1.6721393995687015e+02  1.6772421171573333e+02  1.6867045320849530e+02  1.7063063889317539e+02  1.7155278082391919e+02  1.7243534880383629e+02  1.7351058734637380e+02  1.7656353271624266e+02  1.7792792559879246e+02  1.7940321861009306e+02  1.8132157455170358e+02  1.8248431924134218e+02  1.8378677816397368e+02  1.8792064015741789e+02  1.8900479655360886e+02  1.9046979309464371e+02  1.9255366045162498e+02  1.9459354716296477e+02  1.9620838871027919e+02  1.9743730490966911e+02  1.9841521285869831e+02  1.9914767104926221e+02  1.9974444946170399e+02  2.0020563947226111e+02  2.0050813574314230e+02  2.0065910162819665e+02  2.0102673280932231e+02  2.0131509316855701e+02  2.0149730005695014e+02  2.0160708523382297e+02  2.0167103