<?xml version="1.0"?>
<VTKFile type="UnstructuredGrid"  version="0.1"  >
<UnstructuredGrid>
<Piece  NumberOfPoints="2401" NumberOfCells="4608">
<Points>
<DataArray  type="Float64"  NumberOfComponents="3"  format="ascii">0 0 0  0.001070538380698371 0 0  0.004277569313095364 0 0  0.009607359798386061 0 0  0.01703708685546806 0 0  0.02653493525245065 0 0  0.03806023374436157 0 0  0.05156362923366253 0 0  0.06698729810778931 0 0  0.08426519384873815 0 0  0.1033233298543955 0 0  0.1240800962605269 0 0  0.1464466094067445 0 0  0.1703270924499866 0 0  0.1956192854956637 0 0  0.2222148834902257 0 0  0.2500000000000299 0 0  0.2788556548905322 0 0  0.308658283817491 0 0  0.339280267348458 0 0  0.3705904774487813 0 0  0.4024548389919803 0 0  0.4347369038900211 0 0  0.467298435384978 0 0  0.5000000000000517 0 0  0.5327015646151253 0 0  0.5652630961100813 0 0  0.5975451610081212 0 0  0.6294095225513188 0 0  0.6607197326516399 0 0  0.6913417161826045 0 0  0.7211443451095605 0 0  0.7500000000000597 0 0  0.7777851165098603 0 0  0.8043807145044185 0 0  0.829672907550091 0 0  0.8535533905933287 0 0  0.8759199037395413 0 0  0.8966766701456674 0 0  0.9157348061513193 0 0  0.9330127018922625 0 0  0.9484363707663832 0 0  0.961939766255678 0 0  0.9734650647475827 0 0  0.9829629131445586 0 0  0.9903926402016341 0 0  0.9957224306869181 0 0  0.9989294616193084 0 0  1 0 0  0 0.02083333333333333 0  0.001070538380698371 0.02083333333333333 0  0.004277569313095364 0.02083333333333333 0  0.009607359798386061 0.02083333333333333 0  0.01703708685546806 0.02083333333333333 0  0.02653493525245065 0.02083333333333333 0  0.03806023374436157 0.02083333333333333 0  0.05156362923366253 0.02083333333333333 0  0.06698729810778931 0.02083333333333333 0  0.08426519384873815 0.02083333333333333 0  0.1033233298543955 0.02083333333333333 0  0.1240800962605269 0.02083333333333333 0  0.1464466094067445 0.02083333333333333 0  0.1703270924499866 0.02083333333333333 0  0.1956192854956637 0.02083333333333333 0  0.2222148834902257 0.02083333333333333 0  0.2500000000000299 0.02083333333333333 0  0.2788556548905322 0.02083333333333333 0  0.308658283817491 0.02083333333333333 0  0.339280267348458 0.02083333333333333 0  0.3705904774487813 0.02083333333333333 0  0.4024548389919803 0.02083333333333333 0  0.4347369038900211 0.02083333333333333 0  0.467298435384978 0.02083333333333333 0  0.5000000000000517 0.02083333333333333 0  0.5327015646151253 0.02083333333333333 0  0.5652630961100813 0.02083333333333333 0  0.5975451610081212 0.02083333333333333 0  0.6294095225513188 0.02083333333333333 0  0.6607197326516399 0.02083333333333333 0  0.6913417161826045 0.02083333333333333 0  0.7211443451095605 0.02083333333333333 0  0.7500000000000597 0.02083333333333333 0  0.7777851165098603 0.02083333333333333 0  0.8043807145044185 0.02083333333333333 0  0.829672907550091 0.02083333333333333 0  0.8535533905933287 0.02083333333333333 0  0.8759199037395413 0.02083333333333333 0  0.8966766701456674 0.02083333333333333 0  0.9157348061513193 0.02083333333333333 0  0.9330127018922625 0.02083333333333333 0  0.9484363707663832 0.02083333333333333 0  0.961939766255678 0.02083333333333333 0  0.9734650647475827 0.02083333333333333 0  0.9829629131445586 0.02083333333333333 0  0.9903926402016341 0.02083333333333333 0  0.9957224306869181 0.02083333333333333 0  0.9989294616193084 0.02083333333333333 0  1 0.02083333333333333 0  0 0.04166666666666666 0  0.001070538380698371 0.04166666666666666 0  0.004277569313095364 0.04166666666666666 0  0.009607359798386061 0.04166666666666666 0  0.01703708685546806 0.04166666666666666 0  0.02653493525245065 0.04166666666666666 0  0.03806023374436157 0.04166666666666666 0  0.05156362923366253 0.04166666666666666 0  0.06698729810778931 0.04166666666666666 0  0.08426519384873815 0.04166666666666666 0  0.1033233298543955 0.04166666666666666 0  0.1240800962605269 0.04166666666666666 0  0.1464466094067445 0.04166666666666666 0  0.1703270924499866 0.04166666666666666 0  0.1956192854956637 0.04166666666666666 0  0.2222148834902257 0.04166666666666666 0  0.2500000000000299 0.04166666666666666 0  0.2788556548905322 0.04166666666666666 0  0.308658283817491 0.04166666666666666 0  0.339280267348458 0.04166666666666666 0  0.3705904774487813 0.04166666666666666 0  0.4024548389919803 0.04166666666666666 0  0.4347369038900211 0.04166666666666666 0  0.467298435384978 0.04166666666666666 0  0.5000000000000517 0.04166666666666666 0  0.5327015646151253 0.04166666666666666 0  0.5652630961100813 0.04166666666666666 0  0.5975451610081212 0.04166666666666666 0  0.6294095225513188 0.04166666666666666 0  0.6607197326516399 0.04166666666666666 0  0.6913417161826045 0.04166666666666666 0  0.7211443451095605 0.04166666666666666 0  0.7500000000000597 0.04166666666666666 0  0.7777851165098603 0.04166666666666666 0  0.8043807145044185 0.04166666666666666 0  0.829672907550091 0.04166666666666666 0  0.8535533905933287 0.04166666666666666 0  0.8759199037395413 0.04166666666666666 0  0.8966766701456674 0.04166666666666666 0  0.9157348061513193 0.04166666666666666 0  0.9330127018922625 0.04166666666666666 0  0.9484363707663832 0.04166666666666666 0  0.961939766255678 0.04166666666666666 0  0.9734650647475827 0.04166666666666666 0  0.9829629131445586 0.04166666666666666 0  0.9903926402016341 0.04166666666666666 0  0.9957224306869181 0.04166666666666666 0  0.9989294616193084 0.04166666666666666 0  1 0.04166666666666666 0  0 0.0625 0  0.001070538380698371 0.0625 0  0.004277569313095364 0.0625 0  0.009607359798386061 0.0625 0  0.01703708685546806 0.0625 0  0.02653493525245065 0.0625 0  0.03806023374436157 0.0625 0  0.05156362923366253 0.0625 0  0.06698729810778931 0.0625 0  0.08426519384873815 0.0625 0  0.1033233298543955 0.0625 0  0.1240800962605269 0.0625 0  0.1464466094067445 0.0625 0  0.1703270924499866 0.0625 0  0.1956192854956637 0.0625 0  0.2222148834902257 0.0625 0  0.2500000000000299 0.0625 0  0.2788556548905322 0.0625 0  0.308658283817491 0.0625 0  0.339280267348458 0.0625 0  0.3705904774487813 0.0625 0  0.4024548389919803 0.0625 0  0.4347369038900211 0.0625 0  0.467298435384978 0.0625 0  0.5000000000000517 0.0625 0  0.5327015646151253 0.0625 0  0.5652630961100813 0.0625 0  0.5975451610081212 0.0625 0  0.6294095225513188 0.0625 0  0.6607197326516399 0.0625 0  0.6913417161826045 0.0625 0  0.7211443451095605 0.0625 0  0.7500000000000597 0.0625 0  0.7777851165098603 0.0625 0  0.8043807145044185 0.0625 0  0.829672907550091 0.0625 0  0.8535533905933287 0.0625 0  0.8759199037395413 0.0625 0  0.8966766701456674 0.0625 0  0.9157348061513193 0.0625 0  0.9330127018922625 0.0625 0  0.9484363707663832 0.0625 0  0.961939766255678 0.0625 0  0.9734650647475827 0.0625 0  0.9829629131445586 0.0625 0  0.9903926402016341 0.0625 0  0.9957224306869181 0.0625 0  0.9989294616193084 0.0625 0  1 0.0625 0  0 0.08333333333333333 0  0.001070538380698371 0.08333333333333333 0  0.004277569313095364 0.08333333333333333 0  0.009607359798386061 0.08333333333333333 0  0.01703708685546806 0.08333333333333333 0  0.02653493525245065 0.08333333333333333 0  0.03806023374436157 0.08333333333333333 0  0.05156362923366253 0.08333333333333333 0  0.06698729810778931 0.08333333333333333 0  0.08426519384873815 0.08333333333333333 0  0.1033233298543955 0.08333333333333333 0  0.1240800962605269 0.08333333333333333 0  0.1464466094067445 0.08333333333333333 0  0.1703270924499866 0.08333333333333333 0  0.1956192854956637 0.08333333333333333 0  0.2222148834902257 0.08333333333333333 0  0.2500000000000299 0.08333333333333333 0  0.2788556548905322 0.08333333333333333 0  0.308658283817491 0.08333333333333333 0  0.339280267348458 0.08333333333333333 0  0.3705904774487813 0.08333333333333333 0  0.4024548389919803 0.08333333333333333 0  0.4347369038900211 0.08333333333333333 0  0.467298435384978 0.08333333333333333 0  0.5000000000000517 0.08333333333333333 0  0.5327015646151253 0.08333333333333333 0  0.5652630961100813 0.08333333333333333 0  0.5975451610081212 0.08333333333333333 0  0.6294095225513188 0.08333333333333333 0  0.6607197326516399 0.08333333333333333 0  0.6913417161826045 0.08333333333333333 0  0.7211443451095605 0.08333333333333333 0  0.7500000000000597 0.08333333333333333 0  0.7777851165098603 0.08333333333333333 0  0.8043807145044185 0.08333333333333333 0  0.829672907550091 0.08333333333333333 0  0.8535533905933287 0.08333333333333333 0  0.8759199037395413 0.08333333333333333 0  0.8966766701456674 0.08333333333333333 0  0.9157348061513193 0.08333333333333333 0  0.9330127018922625 0.08333333333333333 0  0.9484363707663832 0.08333333333333333 0  0.961939766255678 0.08333333333333333 0  0.9734650647475827 0.08333333333333333 0  0.9829629131445586 0.08333333333333333 0  0.9903926402016341 0.08333333333333333 0  0.9957224306869181 0.08333333333333333 0  0.9989294616193084 0.08333333333333333 0  1 0.08333333333333333 0  0 0.1041666666666667 0  0.001070538380698371 0.1041666666666667 0  0.004277569313095364 0.1041666666666667 0  0.009607359798386061 0.1041666666666667 0  0.01703708685546806 0.1041666666666667 0  0.02653493525245065 0.1041666666666667 0  0.03806023374436157 0.1041666666666667 0  0.05156362923366253 0.1041666666666667 0  0.06698729810778931 0.1041666666666667 0  0.08426519384873815 0.1041666666666667 0  0.1033233298543955 0.1041666666666667 0  0.1240800962605269 0.1041666666666667 0  0.1464466094067445 0.1041666666666667 0  0.1703270924499866 0.1041666666666667 0  0.1956192854956637 0.1041666666666667 0  0.2222148834902257 0.1041666666666667 0  0.2500000000000299 0.1041666666666667 0  0.2788556548905322 0.1041666666666667 0  0.308658283817491 0.1041666666666667 0  0.339280267348458 0.1041666666666667 0  0.3705904774487813 0.1041666666666667 0  0.4024548389919803 0.1041666666666667 0  0.4347369038900211 0.1041666666666667 0  0.467298435384978 0.1041666666666667 0  0.5000000000000517 0.1041666666666667 0  0.5327015646151253 0.1041666666666667 0  0.5652630961100813 0.1041666666666667 0  0.5975451610081212 0.1041666666666667 0  0.62
[...]
<PointData  Scalars="f_4296049"> 
<DataArray  type="Float64"  Name="f_4296049"  format="ascii">1.9603594807050644e+02  1.9603678940016346e+02  1.9604430412073930e+02  1.9605505938786908e+02  1.9606159661845672e+02  1.9604790875410256e+02  1.9597721098610003e+02  1.9580159211248872e+02  1.9537255305098762e+02  1.9496343407412067e+02  1.9438418872423571e+02  1.9339109208939888e+02  1.9227558358304475e+02  1.9072182335996811e+02  1.8978128750616548e+02  1.8828804299483187e+02  1.8717497048995182e+02  1.8487258495248111e+02  1.8224646612855031e+02  1.8043270554148177e+02  1.7906719415171534e+02  1.7711016799103675e+02  1.7341623405874390e+02  1.7108875015157557e+02  1.6931137574770435e+02  1.6677529720233636e+02  1.6540439103559140e+02  1.6308116726464840e+02  1.5985914733572133e+02  1.5698550008846547e+02  1.5436400178713453e+02  1.5172930152329275e+02  1.4906023865941341e+02  1.4691719961408157e+02  1.4488556940010557e+02  1.4332291277243235e+02  1.4171984202925876e+02  1.4043837659801153e+02  1.3939425108971781e+02  1.3837415877834454e+02  1.3755412512702708e+02  1.3701611745191340e+02  1.3664400504524914e+02  1.3638425232599633e+02  1.3622203050215782e+02  1.3612921116902822e+02  1.3608505102319344e+02  1.3607340405718958e+02  1.3607461059264020e+02  1.9613295325176341e+02  1.9613072265471646e+02  1.9614012525400406e+02  1.9618193489033396e+02  1.9624439666010340e+02  1.9627128101305766e+02  1.9621418803618860e+02  1.9602952433446640e+02  1.9571316396350440e+02  1.9522145756235076e+02  1.9450367402031333e+02  1.9346138338889369e+02  1.9226322385126861e+02  1.9084693404063250e+02  1.8979762394313306e+02  1.8836873515291728e+02  1.8715223697074327e+02  1.8558865425970410e+02  1.8202469409921355e+02  1.8047449703346012e+02  1.7910124575797701e+02  1.7728525073487165e+02  1.7326196786798178e+02  1.7106438342705670e+02  1.6922828059409574e+02  1.6674680023472789e+02  1.6533358953757215e+02  1.6337688879232240e+02  1.5980459327235542e+02  1.5670772499602685e+02  1.5404429872657394e+02  1.5163681820590665e+02  1.4882413286099484e+02  1.4685198524649550e+02  1.4487091014406275e+02  1.4355768025439738e+02  1.4169559929407941e+02  1.4019901003032581e+02  1.3917489734610723e+02  1.3836553061416433e+02  1.3746481307197757e+02  1.3697130367022865e+02  1.3655445107547740e+02  1.3629801816009598e+02  1.3616442906913457e+02  1.3610497087845380e+02  1.3608663746976578e+02  1.3608516491441461e+02  1.3608590854120123e+02  1.9620468259822047e+02  1.9620364751786138e+02  1.9622842041024592e+02  1.9629601421982815e+02  1.9640979576108535e+02  1.9649622999635136e+02  1.9647325960342658e+02  1.9630762059247212e+02  1.9593970513058338e+02  1.9559713666869305e+02  1.9523500609910695e+02  1.9358601662156354e+02  1.9219011249709740e+02  1.9088147585169645e+02  1.8988524495281388e+02  1.8842753447819427e+02  1.8723404888415243e+02  1.8607519157169983e+02  1.8191552815936913e+02  1.8044019157053353e+02  1.7919069586870850e+02  1.7746995273129178e+02  1.7304557998349850e+02  1.7101160219263525e+02  1.6914063026951197e+02  1.6662828364807913e+02  1.6523909176779100e+02  1.6352802045114890e+02  1.5926329051903718e+02  1.5543835977675221e+02  1.5331373938580572e+02  1.5149929773899521e+02  1.4868416765088483e+02  1.4676392084341941e+02  1.4482660001716926e+02  1.4373295953933268e+02  1.4224005453254381e+02  1.3980741428617949e+02  1.3899840271069752e+02  1.3833631707005864e+02  1.3746552027698095e+02  1.3703769384960111e+02  1.3661332110524742e+02  1.3632405384607910e+02  1.3620585216900270e+02  1.3616925205983327e+02  1.3616223459664997e+02  1.3616139568108517e+02  1.3616011152670228e+02  1.9599528843116497e+02  1.9599624967525287e+02  1.9600683253364147e+02  1.9604342022881241e+02  1.9610991024683446e+02  1.9619601368699429e+02  1.9626859252080448e+02  1.9623956623210231e+02  1.9594786721963214e+02  1.9563806608669964e+02  1.9540677407629494e+02  1.9373959695965880e+02  1.9204895142249470e+02  1.9082525027955629e+02  1.8992689568951619e+02  1.8846279314306790e+02  1.8729312768332781e+02  1.8619967181608715e+02  1.8187251205505231e+02  1.8037400714821661e+02  1.7918282739527811e+02  1.7759131786961254e+02  1.7288505634909615e+02  1.7101148817582242e+02  1.6909714349680277e+02  1.6648790073241946e+02  1.6505188182281870e+02  1.6332837995130893e+02  1.5877828815952375e+02  1.5464304249882807e+02  1.5285656476399819e+02  1.5143122752852281e+02  1.4877376343665043e+02  1.4678924638921009e+02  1.4485371444078072e+02  1.4385038812883460e+02  1.4255191096715839e+02  1.3965264075722865e+02  1.3901602127560122e+02  1.3839400909479622e+02  1.3760820384041301e+02  1.3720482396241403e+02  1.3678573298145199e+02  1.3637226136858732e+02  1.3628272949953171e+02  1.3628436520381840e+02  1.3630014862708975e+02  1.3630902545158179e+02  1.3631470202705927e+02  1.9564614667995113e+02  1.9564591876443603e+02  1.9565396145678477e+02  1.9568043546086707e+02  1.9573024563559594e+02  1.9579416588060610e+02  1.9584408368900023e+02  1.9585212398707722e+02  1.9574318447646417e+02  1.9552584697145193e+02  1.9530338886244877e+02  1.9378259134127498e+02  1.9184906903144474e+02  1.9071589166482264e+02  1.8988777822110114e+02  1.8845557566747658e+02  1.8727732398681275e+02  1.8615312044376074e+02  1.8183903145575346e+02  1.8026895017563638e+02  1.7909074110725780e+02  1.7766116130046478e+02  1.7273479887047216e+02  1.7105793866284367e+02  1.6904689522135487e+02  1.6631996903757846e+02  1.6476422431975030e+02  1.6290489223426474e+02  1.5841475412549022e+02  1.5417750038423443e+02  1.5254763101241420e+02  1.5131448018157505e+02  1.4889845540500320e+02  1.4692478446548972e+02  1.4497035988327721e+02  1.4403185973768831e+02  1.4281006190907223e+02  1.3969532296418944e+02  1.3914101861470866e+02  1.3852613444000880e+02  1.3781329251038369e+02  1.3745719756014529e+02  1.3712091142847856e+02  1.3691020115440710e+02  1.3689623282336103e+02  1.3690753579105848e+02  1.3691473295669695e+02  1.3691288825004776e+02  1.3690585678963609e+02  1.9517742385698381e+02  1.9517824244233881e+02  1.9518925810425426e+02  1.9522102737531108e+02  1.9527855883685262e+02  1.9535001711046760e+02  1.9541644802095749e+02  1.9545573805503116e+02  1.9540673240099974e+02  1.9525790679910529e+02  1.9490791594438659e+02  1.9375210127467457e+02  1.9156883689563475e+02  1.9053208360304615e+02  1.8975535078484671e+02  1.8836664103603644e+02  1.8717355265477283e+02  1.8599186648186415e+02  1.8174542928056673e+02  1.8010951721225337e+02  1.7893616643613004e+02  1.7763006225377032e+02  1.7259613337237809e+02  1.7106830204466394e+02  1.6880328794000019e+02  1.6616363868465379e+02  1.6450324563731508e+02  1.6214058284725490e+02  1.5812240590812820e+02  1.5397480889870954e+02  1.5238991559931856e+02  1.5121012659609875e+02  1.4896498824818181e+02  1.4708613920073296e+02  1.4516717432500224e+02  1.4427633375084355e+02  1.4310654461818834e+02  1.3990245378779645e+02  1.3940901561372380e+02  1.3877495421666288e+02  1.3810630349795986e+02  1.3778062433269943e+02  1.3753374905546690e+02  1.3747664322812525e+02  1.3749323590874951e+02  1.3750349211226217e+02  1.3751179868465616e+02  1.3751653698987042e+02  1.3752089865885191e+02  1.9456354102901773e+02  1.9456490318105034e+02  1.9460835486895746e+02  1.9471201322830589e+02  1.9486078805307415e+02  1.9502758838152928e+02  1.9516686238287190e+02  1.9519755701739638e+02  1.9504912779660683e+02  1.9478986947883999e+02  1.9428761260697704e+02  1.9368290361458878e+02  1.9122530539965595e+02  1.9025921750401312e+02  1.8952613114939808e+02  1.8816664301657255e+02  1.8696499585482471e+02  1.8572403615693722e+02  1.8156792972026793e+02  1.7989228323886317e+02  1.7872156619627984e+02  1.7747429194702221e+02  1.7245506990979001e+02  1.7098164554405963e+02  1.6836916137318406e+02  1.6599385074033245e+02  1.6446639554031429e+02  1.6071973578870535e+02  1.5790856553723449e+02  1.5422250512929585e+02  1.5238263196579229e+02  1.5113312829008458e+02  1.4899142171882016e+02  1.4722612414803260e+02  1.4540634718103101e+02  1.4456312022792326e+02  1.4345799559932368e+02  1.4029607432592289e+02  1.3987825665035544e+02  1.3919351856299107e+02  1.3850802516598364e+02  1.3827791706006323e+02  1.3811428123293172e+02  1.3805228451252947e+02  1.3806492524276209e+02  1.3808479323784292e+02  1.3809597964198520e+02  1.3809780795573303e+02  1.3809576064351987e+02  1.9306235082374837e+02  1.9306536987079099e+02  1.9304661297566386e+02  1.9302387382311863e+02  1.9302180428775551e+02  1.9305407468911122e+02  1.9313338711513785e+02  1.9328135278406171e+02  1.9353913697605324e+02  1.9381204097557114e+02  1.9364302385894862e+02  1.9319675284248447e+02  1.9084332241130545e+02  1.8988158585412685e+02  1.8918069190724032e+02  1.8783593093119066e+02  1.8663539659691921e+02  1.8535305307224360e+02  1.8130327269710733e+02  1.7961132326586821e+02  1.7844299194265244e+02  1.7720989298091936e+02  1.7224764804360680e+02  1.7078863550851239e+02  1.6798493886314563e+02  1.6583534737831411e+02  1.6443490576479249e+02  1.5983499727479651e+02  1.5782491319211408e+02  1.5511017839713426e+02  1.5253357224974658e+02  1.5107779132016896e+02  1.4900837713722976e+02  1.4737994608799184e+02  1.4568773957103073e+02  1.4488270367835077e+02  1.4385048686228859e+02  1.4091199693078858e+02  1.4056228071634160e+02  1.3997653629515122e+02  1.3942330304428953e+02  1.3921213804021107e+02  1.3911479970209584e+02  1.3902449623889294e+02  1.3903272381893763e+02  1.3905603481282517e+02  1.3906930720715491e+02  1.3907312144412941e+02  1.3907382126387282e+02  1.9222132655068427e+02  1.9221817173114076e+02  1.9221118490735680e+02  1.9220899999506457e+02  1.9221674736941799e+02  1.9223908951078764e+02  1.9227997369685505e+02  1.9234254837192580e+02  1.9242177400075013e+02  1.9252402078941424e+02  1.9251743787718371e+02  1.9234463944365243e+02  1.9032339174386814e+02  1.8937926105004405e+02  1.8869513181107433e+02  1.8736479569049843e+02  1.8617603744489389e+02  1.8487891959349133e+02  1.8095286662116482e+02  1.7926366532073646e+02  1.7809922161117254e+02  1.7685892136761865e+02  1.7197088174211504e+02  1.7053086423962367e+02  1.6773409189576805e+02  1.6567097090497555e+02  1.6431713498558975e+02  1.5946390180602489e+02  1.5778095835676640e+02  1.5602680183319444e+02  1.5310323328298153e+02  1.5102592521576560e+02  1.4907795833524895e+02  1.4761860365009932e+02  1.4605131986213459e+02  1.4525622463368131e+02  1.4424529208258488e+02  1.4171497176618951e+02  1.4130400859945397e+02  1.4081923317697016e+02  1.4025525651947081e+02  1.4001409052937095e+02  1.3991824200501074e+02  1.3983348781899215e+02  1.3975484592542597e+02  1.3975690375684067e+02  1.3976095570071968e+02  1.3976290255649488e+02  1.3976434806248793e+02  1.9146841128971241e+02  1.9146617301971435e+02  1.9146360582068866e+02  1.9146319867482930e+02  1.9147576262211564e+02  1.9150682183075401e+02  1.9155145104111494e+02  1.9159752411569622e+02  1.9162975241022849e+02  1.9163376219100866e+02  1.9158389889799724e+02  1.9131228218804353e+02  1.8964724346287812e+02  1.8873728929702460e+02  1.8806386790156006e+02  1.8675438102276536e+02  1.8558630889736412e+02  1.8430240887968299e+02  1.8052075849096576e+02  1.7884837090577707e+02  1.7769116672739003e+02  1.7643410027021091e+02  1.7165901079891481e+02  1.7024413484692263e+02  1.6757552849762862e+02  1.6549543548379515e+02  1.6417021265082852e+02  1.5930275263141385e+02  1.5780756034804509e+02  1.5644442582503871e+02  1.5424618419930329e+02  1.5110131067517386e+02  1.4942890692100866e+02  1.4804835780130622e+02  1.4655339658659693e+02  1.4569920079269113e+02  1.4471502558426775e+02  1.4302823163997860e+02  1.4232660238965116e+02  1.4193618545866903e+02  1.4145419874538001e+02  1.4102044783984988e+02  1.4091174753657302e+02  1.4096247685940830e+02  1.4090726576213959e+02  1.4076535857323680e+02  1.4070782122381507e+02  1.4069134486253830e+02  1.4068001397332611e+02  1.8990789080133123e+02  1.8990866103111233e+02  1.8991259140032327e+02  1.8992610877888353e+02  1.8995066610351302e+02  1.8998438142675576e+02  1.9002091896723002e+02  1.9004659393958943e+02  1.9004205479563799e+02  1.8998728655545881e+02  1.8982461926782466e+02  1.8938834107488356e+02  1.8869512631594978e+02  1.8798771170916504e+02  1.8729041720389841e+02  1.8600905723491914e+02  1.8487100128681425e+02  1.8362656998188251e+02  1.8000937624051735e+02  1.7836519850840341e+02  1.7722041495249596e+02  1.7593730701524706e+02  1.7133410941781719e+02  1.6993913217493278e+02  1.6745882188197999e+02  1.6532728587495009e+02  1.6401828926697939e+02  1.5927881267234665e+02  1.5789126873567307e+02  1.5670528995713372e+02  1.5498957888397479e+02  1.5124129026500873e+02  1.4996563113398292e+02  1.4870529095491099e+02  1.4718082342609770e+02  1.4631848067383979e+02  1.4544731942028838e+02  1.4465837239454626e+02  1.4386568661963094e+02  1.4334146471640099e+02  1.4306122529934589e+02  1.4291528432512928e+02  1.4292908291167035e+02  1.4295367908094508e+02  1.4298847585600032e+02  1.4302822629864625e+02  1.4305724229067241e+02  1.4310132264133256e+02  1.4313351243262687e+02  1.8855462558072736e+02  1.8855922460564247e+02  1.8856561586926631e+02  1.8857356412054975e+02  1.8858274890224797e+02  1.8859115762604696e+02  1.8859577366327787e+02  1.8858998192094541e+02  1.8855737440329827e+02  1.8846535102380159e+02  1.8831124545544381e+02  1.8804219844765356e+02  1.8762664861088390e+02  1.8706737732017731e+02  1.8636689110043432e+02  1.8513650298494025e+02  1.8404036952224342e+02  1.8286006364901024e+02  1.7941673252503665e+02  1.7781419105982670e+02  1.7668641207590585e+02  1.7536667966120166e+02  1.7098888476550880e+02  1.6959639618181319e+02  1.6736168389582187e+02  1.6518111067534898e+02  1.6387399812048236e+02  1.5936602603399945e+02  1.5802157546109743e+02  1.5693274320172753e+02  1.5553168547566668e+02  1.5154306368339527e+02  1.5050577068645117e+02  1.4937735739549200e+02  1.4791332295737939e+02  1.4710859182161175e+02  1.4642314999092210e+02  1.4597468865023805e+02  1.4557174274872128e+02  1.4504858915716719e+02  1.4482932454457634e+02  1.4498231015565719e+02  1.4506950207416881e+02  1.4507931458572014e+02  1.4507584156221708e+02  1.4508339782500300e+02  1.4509037146101372e+02  1.4507936745553968e+02  1.4505253027717887e+02  1.8700289761354475e+02  1.8700034250274575e+02  1.8699898523168551e+02  1.8700386923130188e+02  1.8701405667393340e+02  1.8702651398521786e+02  1.8703626999961375e+02  1.8703432139527666e+02  1.8700407143089038e+02  1.8692018858148811e+02  1.8674949578163867e+02  1.8647672666661472e+02  1.8610374688013914e+02  1.8576236772899767e+02  1.8527999937870581e+02  1.8414513416737447e+02  1.8311604355087695e+02  1.8201701614224993e+02  1.7873815470693651e+02  1.7719683265228122e+02  1.7608862877888248e+02  1.7473833969916700e+02  1.7059040965126266e+02  1.6918141952506022e+02  1.6730768864836568e+02  1.6504126830623434e+02  1.6373854468102749e+02  1.5958306434696055e+02  1.5819686243452989e+02  1.5714770741416908e+02  1.5596380361635656e+02  1.5206677059389253e+02  1.5116114080146409e+02  1.5010784925203288e+02  1.4883119604564740e+02  1.4791648621372948e+02  1.4729115455964927e+02  1.4686719410076171e+02  1.4655890335627777e+02  1.4640211460358387e+02  1.4632670481074203e+02  1.4635438261929829e+02  1.4637092901101485e+02  1.4638333652323828e+02  1.4638954254616885e+02  1.4639016062069348e+02  1.4638977453554750e+02  1.4639158047084075e+02  1.4640388096712070e+02  1.8595353833213548e+02  1.8595408442879895e+02  1.8596040137840416e+02  1.8596996237280902e+02  1.8598829748370508e+02  1.8601854466590146e+02  1.8605567023400033e+02  1.8608472040783784e+02  1.8608199415316196e+02  1.8601651257885365e+02  1.8585071355110910e+02  1.8556045692409276e+02  1.8517608236250575e+02  1.8468453696357139e+02  1.8402905867373806e+02  1.8306648135419488e+02  1.8213328388020184e+02  1.8111211783623807e+02  1.7797424280784821e+02  1.7651964633193248e+02  1.7543429304111427e+02  1.7408323951502072e+02  1.7015697400074330e+02  1.6874863447553182e+02  1.6717487594952144e+02  1.6494575051222023e+02  1.6366920544828216e+02  1.6011273173392834e+02  1.5842123941624635e+02  1.5736595983604923e+02  1.5633035015846164e+02  1.5281919814624428e+02  1.5195414698210161e+02  1.5106222291693715e+02  1.5000465110190996e+02  1.4934511758326627e+02  1.4866328641938009e+02  1.4822379801885288e+02  1.4795811511102013e+02  1.4779017748646453e+02  1.4750640223435539e+02  1.4731656387856742e+02  1.4722669462700412e+02  1.4720961734147346e+02  1.4721868626661913e+02  1.4722533150635539e+02  1.4722265880032347e+02  1.4721802714089335e+02  1.4721410001708574e+02  1.8430948499117420e+02  1.8431064369070916e+02  1.8431711038244862e+02  1.8433845069246232e+02  1.8437654264963027e+02  1.8442964757769334e+02  1.8449100079081734e+02  1.8454805312644581e+02  1.8458084830784014e+02  1.8455924547103001e+02  1.8444756386601554e+02  1.8421867923983055e+02  1.8385852704594760e+02  1.8334329179316578e+02  1.8264482880382297e+02  1.8188993453797528e+02  1.8112230335342159e+02  1.8014098994741772e+02  1.7713846048841629e+02  1.7579580652136914e+02  1.7473699593728722e+02  1.7342015514631660e+02  1.6973313437639214e+02  1.6836028374267303e+02  1.6689381901270031e+02  1.6489304091113357e+02  1.6361565534036833e+02  1.6143909029896119e+02  1.5867043651551433e+02  1.5770179714216957e+02  1.5667433819683106e+02  1.5387098198289021e+02  1.5287360277584395e+02  1.5233881888074433e+02  1.5172220446508948e+02  1.5119124337460892e+02  1.5077236812891360e+02  1.5034713169052810e+02  1.4999556451060684e+02  1.4965557602239642e+02  1.4909764263916159e+02  1.4841965439784460e+02  1.4820426041681094e+02  1.4821374659420235e+02  1.4829000930854471e+02  1.4838937737227675e+02  1.4847881467950984e+02  1.4853238813199610e+02  1.4854488748109239e+02  1.8301650677714247e+02  1.8301401742491811e+02  1.8303288000681223e+02  1.8307445903102922e+02  1.8314089133880657e+02  1.8322495287480530e+02  1.8331318875030001e+02  1.8338862259081631e+02  1.8343205180613893e+02  1.8342041149322998e+02  1.8332545302265274e+02  1.8311996512506076e+02  1.8278438550985672e+02  1.8229961910366686e+02  1.8166956526157537e+02  1.8092888896154227e+02  1.8011818312652994e+02  1.7907352757393798e+02  1.7625281328476976e+02  1.7503849356358506e+02  1.7400676862917442e+02  1.7274602271801538e+02  1.6932882224670576e+02  1.6800805556159102e+02  1.6660731531079182e+02  1.6478664157195101e+02  1.6365951739832022e+02  1.6234992303346309e+02  1.5906312626922715e+02  1.5832635341958718e+02  1.5723007850107123e+02  1.5518510514046866e+02  1.5380967099624300e+02  1.5326739335201219e+02  1.5274310186130330e+02  1.5224063983283679e+02  1.5187401443049305e+02  1.5161510688961937e+02  1.5143401916750094e+02  1.5127645679607920e+02  1.5117060446682066e+02  1.5117310706327044e+02  1.5135630563384862e+02  1.5141023596759612e+02  1.5137831480112544e+02  1.5130354519962657e+02  1.5121651206184944e+02  1.5114881518860832e+02  1.5112012664738174e+02  1.8123105132063071e+02  1.8123958982706284e+02  1.8131479374664869e+02  1.8145202477282317e+02  1.8162244950345658e+02  1.8179883593729218e+02  1.8195360374741242e+02  1.8206339147612667e+02  1.8211139873255271e+02  1.8208713521940135e+02  1.8198075457079750e+02  1.8177770712688459e+02  1.8146385172789533e+02  1.8103765673855008e+02  1.8051043189191043e+02  1.7986782838756244e+02  1.7904937230170501e+02  1.7778905600857652e+02  1.7532138399830387e+02  1.7424251550510317e+02  1.7324034620375886e+02  1.7203865422872397e+02  1.6893130238444331e+02  1.6768301002927441e+02  1.6635768688580418e+02  1.6468633257257878e+02  1.6371496059316081e+02  1.6265252628919569e+02  1.5959598951320152e+02  1.5889452739910320e+02  1.5791532228422571e+02  1.5664172953257253e+02  1.5546066733127680e+02  1.5448205072955724e+02  1.5376933052799009e+02  1.5325404798404065e+02  1.5291988684058009e+02  1.5268196603117485e+02  1.5254019462461250e+02  1.5251960801950088e+02  1.5264701413357921e+02  1.5266937127227467e+02  1.5260200540549681e+02  1.5254806566923119e+02  1.5252228862573966e+02  1.5250842