<?xml version="1.0"?>
<VTKFile type="UnstructuredGrid"  version="0.1"  >
<UnstructuredGrid>
<Piece  NumberOfPoints="2954" NumberOfCells="5142">
<Points>
<DataArray  type="Float64"  NumberOfComponents="3"  format="ascii">-20 2.5 0  -20 0 0  -1 0 0  -0.9996988186962042 0.02454122852291233 0  -0.9987954562051724 0.04906767432741797 0  -0.9972904566786902 0.07356456359966773 0  -0.9951847266721968 0.09801714032956083 0  -0.99247953459871 0.1224106751992163 0  -0.989176509964781 0.1467304744553618 0  -0.9852776423889412 0.1709618887603012 0  -0.9807852804032304 0.1950903220161286 0  -0.9757021300385285 0.21910124015687 0  -0.970031253194544 0.2429801799032641 0  -0.9637760657954398 0.2667127574748985 0  -0.9569403357322088 0.2902846772544624 0  -0.9495281805930367 0.3136817403988914 0  -0.9415440651830207 0.3368898533922203 0  -0.9329927988347388 0.3598950365349883 0  -0.9238795325112867 0.3826834323650899 0  -0.9142097557035307 0.4052413140049899 0  -0.9039892931234433 0.427555093430282 0  -0.8932243011955152 0.4496113296546069 0  -0.8819212643483549 0.4713967368259979 0  -0.8700869911087113 0.4928981922297841 0  -0.857728610000272 0.5141027441932218 0  -0.8448535652497071 0.5349976198870972 0  -0.8314696123025453 0.5555702330196022 0  -0.8175848131515836 0.5758081914178454 0  -0.8032075314806448 0.5956993044924335 0  -0.7883464276266062 0.6152315905806269 0  -0.773010453362737 0.6343932841636455 0  -0.7572088465064846 0.6531728429537766 0  -0.7409511253549589 0.6715589548470186 0  -0.7242470829514668 0.6895405447370671 0  -0.7071067811865475 0.7071067811865476 0  -0.6895405447370669 0.7242470829514669 0  -0.6715589548470184 0.740951125354959 0  -0.6531728429537765 0.7572088465064847 0  -0.6343932841636454 0.7730104533627371 0  -0.6152315905806267 0.7883464276266063 0  -0.5956993044924334 0.8032075314806449 0  -0.5758081914178453 0.8175848131515837 0  -0.555570233019602 0.8314696123025455 0  -0.534997619887097 0.8448535652497072 0  -0.5141027441932217 0.8577286100002721 0  -0.492898192229784 0.8700869911087115 0  -0.4713967368259977 0.881921264348355 0  -0.4496113296546067 0.8932243011955152 0  -0.4275550934302819 0.9039892931234434 0  -0.4052413140049897 0.9142097557035307 0  -0.3826834323650897 0.9238795325112867 0  -0.3598950365349882 0.9329927988347388 0  -0.3368898533922199 0.9415440651830208 0  -0.3136817403988914 0.9495281805930367 0  -0.2902846772544622 0.9569403357322089 0  -0.2667127574748983 0.9637760657954398 0  -0.2429801799032639 0.970031253194544 0  -0.2191012401568697 0.9757021300385286 0  -0.1950903220161282 0.9807852804032304 0  -0.1709618887603012 0.9852776423889412 0  -0.1467304744553616 0.989176509964781 0  -0.1224106751992162 0.99247953459871 0  -0.09801714032956065 0.9951847266721969 0  -0.07356456359966733 0.9972904566786902 0  -0.04906767432741801 0.9987954562051724 0  -0.02454122852291214 0.9996988186962042 0  6.123233995736766e-17 1 0  0.02454122852291226 0.9996988186962042 0  0.04906767432741813 0.9987954562051724 0  0.07356456359966745 0.9972904566786902 0  0.09801714032956077 0.9951847266721968 0  0.1224106751992163 0.99247953459871 0  0.1467304744553617 0.989176509964781 0  0.1709618887603014 0.9852776423889412 0  0.1950903220161283 0.9807852804032304 0  0.2191012401568698 0.9757021300385286 0  0.242980179903264 0.970031253194544 0  0.2667127574748984 0.9637760657954398 0  0.2902846772544623 0.9569403357322089 0  0.3136817403988916 0.9495281805930367 0  0.3368898533922201 0.9415440651830208 0  0.3598950365349883 0.9329927988347388 0  0.3826834323650898 0.9238795325112867 0  0.4052413140049899 0.9142097557035307 0  0.4275550934302822 0.9039892931234433 0  0.4496113296546066 0.8932243011955153 0  0.4713967368259978 0.8819212643483549 0  0.4928981922297841 0.8700869911087113 0  0.5141027441932217 0.8577286100002721 0  0.5349976198870973 0.844853565249707 0  0.5555702330196023 0.8314696123025452 0  0.5758081914178453 0.8175848131515837 0  0.5956993044924335 0.8032075314806448 0  0.6152315905806268 0.7883464276266062 0  0.6343932841636455 0.773010453362737 0  0.6531728429537768 0.7572088465064845 0  0.6715589548470183 0.7409511253549591 0  0.6895405447370669 0.7242470829514669 0  0.7071067811865476 0.7071067811865475 0  0.724247082951467 0.6895405447370668 0  0.7409511253549591 0.6715589548470183 0  0.7572088465064846 0.6531728429537768 0  0.773010453362737 0.6343932841636455 0  0.7883464276266063 0.6152315905806268 0  0.8032075314806449 0.5956993044924334 0  0.8175848131515837 0.5758081914178453 0  0.8314696123025452 0.5555702330196022 0  0.8448535652497071 0.5349976198870972 0  0.8577286100002721 0.5141027441932217 0  0.8700869911087115 0.492898192229784 0  0.881921264348355 0.4713967368259976 0  0.8932243011955153 0.4496113296546065 0  0.9039892931234433 0.4275550934302821 0  0.9142097557035307 0.4052413140049899 0  0.9238795325112867 0.3826834323650898 0  0.932992798834739 0.3598950365349881 0  0.9415440651830208 0.3368898533922201 0  0.9495281805930367 0.3136817403988915 0  0.9569403357322088 0.2902846772544623 0  0.9637760657954398 0.2667127574748984 0  0.970031253194544 0.2429801799032639 0  0.9757021300385286 0.2191012401568698 0  0.9807852804032304 0.1950903220161282 0  0.9852776423889412 0.1709618887603012 0  0.989176509964781 0.1467304744553617 0  0.99247953459871 0.1224106751992162 0  0.9951847266721969 0.0980171403295606 0  0.9972904566786902 0.07356456359966743 0  0.9987954562051724 0.04906767432741801 0  0.9996988186962042 0.02454122852291229 0  1 0 0  20 0 0  20 2.5 0  0 2.5 0  -10 2.5 0  10 2.5 0  -10.5 0 0  -5 2.5 0  10.5 0 0  5 2.5 0  -5.75 0 0  5.75 0 0  -15.25 0 0  -15 2.5 0  15.25 0 0  15 2.5 0  -17.625 0 0  -17.5 2.5 0  17.5 2.5 0  17.625 0 0  12.5 2.5 0  12.875 0 0  -12.5 2.5 0  -12.875 0 0  -2.5 2.5 0  2.5 2.5 0  -8.125 0 0  -7.5 2.5 0  8.125 0 0  7.5 2.5 0  -3.375 0 0  3.375 0 0  -18.75 2.5 0  20 1.25 0  16.4375 1.19375 0  -16.25 2.5 0  13.75 2.5 0  -14.0625 0 0  -11.6875 0 0  11.6875 0 0  8.75 2.5 0  -8.75 2.5 0  6.9375 0 0  6.25 2.5 0  -6.25 2.5 0  -9.3125 0 0  -6.9375 0 0  9.3125 0 0  11.25 2.5 0  -11.25 2.5 0  3.75 2.5 0  4.5625 0 0  -4.5625 0 0  -3.75 2.5 0  -13.75 2.5 0  14.0625 0 0  -16.4375 0 0  -20 1.25 0  -18.8125 0 0  18.75 2.5 0  -18.21875 1.2359375 0  18.125 1.278125 0  -15.84375 1.2125 0  -14.375 1.30859375 0  14.65625 1.203125 0  2.1875 0 0  -2.1875 0 0  13.125 1.315625 0  3.125 1.315625 0  -3.125 1.315625 0  -12.28125 1.1890625 0  -5.15625 1.184375 0  11.09375 1.184375 0  5.625 1.325 0  -10.97262068800044 1.220713793599868 0  9.375 1.32734375 0  -6.875 1.32734375 0  -9.67626828410207 1.24449497187193 0  8.061334925608099 1.312208731402025 0  -8.188665074391901 1.312208731402025 0  -1.25 2.5 0  1.25 2.5 0  4.37465139623265 1.41327350462657 0  16.25 2.5 0  6.84375467392576 1.430449641528851 0  -1.846573640185365 1.334702047669377 0  1.846573640185365 1.334702047669377 0  -17.02955351149946 1.396129584721571 0  16.4375 0 0  18.8125 0 0  -13.31314667860176 1.511193493282891 0  -4.122005747945582 0.961844908681634 0  12.12799425205442 0.961844908681634 0  15.54930641305724 1.660405980876393 0  19.0578783583929 0.9559530595267438 0  8.71875 0.6864560603786576 0  -7.53125 0.6864560603786576 0  -0.6257799091428727 1.819008129832856 0  0.6257799091428734 1.819008129832855 0  6.291331569065717 0.7194652423646902 0  -19.11204717950418 0.9044926794710327 0  -4.488713231834613 1.772186102355655 0  11.76128676816539 1.772186102355655 0  -19.28185607205105 1.781856072051052 0  19.30868080343342 1.808680803433421 0  9.90625 0.6371857066656857 0  -6.34375 0.6371857066656857 0  3.796921710049233 0.7617406159238448 0  7.392020585015773 0.7480839107774819 0  -8.910372062800235 0.7929553447587234 0  10.2506781820361 1.451853913138859 0  -5.999321817963904 1.451853913138859 0  4.957643119381741 0.7716423099297361 0  17.29984375 0.8640625 0  15.41193625859067 0.8279888354083842 0  -13.72251704931534 0.7728002662082776 0  16.875 2.5 0  17.12178336313261 1.690954734835967 0  -11.64001625260176 1.74572103154608 0  2.477726735235857 0.7850262278604345 0  13.46875 0 0  13.765625 0.7802887470308788 0  -2.78125 0 0  -2.477726735235857 0.7850262278604346 0  -10.33383379274331 1.744431431923121 0  13.91957519050334 1.653419259628842 0  -15.08147780274903 0.8341506893754731 0  -15.14066649024666 1.671962869821843 0  -8.950686484882164 1.678622661163363 0  -17.55392917606836 0.794731598412167 0  -16.80247533599675 0.6688259240674158 0  -12.94289066923278 0.7766744225472476 0  -9.90625 0 0  -10.31601468672093 0.7730817089126454 0  -18.21875 0 0  -12.28125 0 0  -17.68515668569534 1.768907656575843 0  18.21875 0 0  10.85059123027421 1.880344717307101 0  -5.399408769725794 1.880344717307101 0  -3.738137326223278 1.749164834446819 0  -3.125 2.5 0  12.46235897590077 1.601301060091387 0  -11.09375 0 0  -11.61661448001209 0.7781698802173554 0  -15.625 2.5 0  -1.764022608759088 0.6027229563180789 0  1.59375 0 0  -8.125 2.5 0  8.125 2.5 0  8.713468311289519 1.727645658498745 0  9.375 2.5 0  -7.536531688710481 1.727645658498745 0  -6.875 2.5 0  14.375 2.5 0  17.78381794101733 1.874391370085592 0  18.59891476281433 1.80649740393129 0  -18.58835555265984 1.824268641341969 0  1.806126122135773 0.6510673837470153 0  -16.875 2.5 0  -16.36681393636619 1.755298393865037 0  -16.13072438662071 0.6014017614895231 0  -13.92460230791385 1.83195710210235 0  -14.40198779087891 0.6105385965811564 0  20 0.625 0  19.40625 0 0  14.6875 1.888836596385542 0  14.65625 0 0  12.78248197181444 0.6991460920542635 0  -3.467518028185561 0.6991460920542635 0  13.125 2.5 0  2.491957142932539 1.738660596534321 0  3.125 2.5 0  1.875 2.5 0  3.718973573227002 1.75927763286174 0  -2.491957142932539 1.738660596534321 0  -1.875 2.5 0  -9.375 2.5 0  6.2001972846108 1.772767401802766 0  5.625 2.5 0  5.027483518098582 1.760895488350309 0  5.625981449127788 0.6566963631252629 0  -12.30101114679273 1.859484693920165 0  9.742489932362783 1.884363450023167 0  -6.507510067637216 1.884363450023166 0  1.13492303295015 1.283502262067074
[...]
<PointData  Scalars="f_5638"> 
<DataArray  type="Float64"  Name="f_5638"  format="ascii">3.4902812229151847e-04  3.3890843037859373e-04  -1.5195890323293699e-06  -6.4642112714010597e-07  -6.0045953700472822e-07  -8.0114976780116977e-07  1.8162516294607710e-08  -3.3223048475361306e-07  -1.3784454445019700e-06  -1.6578827376058181e-06  4.5392160548130514e-06  4.5686774962892035e-07  -1.7170439428357156e-07  1.3914800524407269e-06  -7.1131917723434868e-07  -2.9044054597901789e-06  -1.2144132791819844e-06  -1.7506970435396203e-06  -2.9377377713634753e-07  -4.6630840474690323e-06  -8.7136474743538895e-06  -8.4731364843435346e-06  -4.4563866381166138e-06  -8.1656413601066358e-06  -7.5468751174866958e-06  -7.7447250004771800e-06  -9.2038651324941025e-06  -3.0216483639903257e-06  -2.4229964393074313e-06  -1.0142004884816098e-05  -1.6747067541571901e-05  -2.9305971137613805e-05  -3.0376789437809955e-05  -1.2679381821935182e-05  -2.1216507608759620e-05  -2.1429841242905720e-05  -1.7299308144253330e-05  -3.9664064459152010e-05  -3.9962040189416466e-05  -1.2668301793236260e-05  -1.4038993829630857e-05  -3.6787348595774105e-05  -3.6673133106438109e-05  -1.6164056966360661e-05  -5.0792046003671136e-06  -1.6091970194312732e-05  1.9528424667194737e-05  -1.3875865960098762e-05  -4.8073755139997901e-05  -4.8852810529318487e-05  -2.0462580431316598e-05  -1.9786331826576324e-05  -5.4604043771691534e-05  -5.5139163991789144e-05  -2.4100003192796836e-05  -4.9623244535757931e-06  -3.6435633883567770e-06  -1.2446752368431896e-05  -1.5010238506909937e-05  -1.5967628372910354e-05  -2.9267011745265760e-05  -2.9524674362261115e-05  -7.2453591202108494e-06  -9.6807065767539953e-06  -3.1511855891138152e-05  -2.7331403061136462e-05  -3.0438000592708786e-05  -3.2636948924138509e-05  -1.6965799051052150e-05  -4.5293249064906355e-05  -4.4576833761109431e-05  -8.8471485993229103e-06  -8.7711468760686952e-06  -3.5285293007720638e-05  -3.2597621309369817e-05  -7.8930231693418694e-06  -1.0732660260906739e-05  -3.1116136249864891e-05  2.4851197899760161e-05  -1.1656881516895015e-05  -2.3245583521291699e-05  -5.2854405877252779e-05  -5.3122982036997373e-05  -1.9832330848338942e-05  -8.9335635653689212e-06  -1.1414308130044982e-05  -1.6250953903415887e-05  -3.9643100441224639e-05  -3.9758065253515110e-05  -1.3487490133829967e-05  -1.0255525800608139e-05  -3.4899787438264807e-05  -3.5264023464594335e-05  -1.3538728863730053e-05  -1.2410712989982401e-05  -3.5499684295534130e-05  -3.5383831272384271e-05  -1.3074144485403002e-05  -1.3959754544124687e-05  -1.4528243788250597e-05  -1.1619155214670386e-06  -5.8578456962126508e-06  -1.9282724786409149e-05  -1.7780883944890231e-05  -1.6394910172234641e-05  -1.6598679227165482e-05  -4.5569300353652509e-06  -1.6502803191297603e-06  -1.4542593179601670e-06  -7.3559461399221622e-06  -7.6561883173141039e-06  -5.0714972209057962e-07  2.5478779558446931e-08  -1.1581909138195744e-06  -8.0892298845876994e-06  1.1927569305357927e-06  -4.3478836921897998e-06  -3.2361192572487622e-06  -5.5943662441199281e-06  -4.1562205315601608e-06  -3.5890656437984812e-07  2.6176714596248885e-07  -3.7820916428713801e-07  -6.2846202562946490e-07  -2.1134872706047533e-07  4.4563941097193260e-07  -1.4968258156654576e-07  -1.0264682760971591e-06  -3.7965723229661269e-07  -6.2888356505572070e-08  -2.0566877563456846e-07  3.4003642784971572e-04  3.3988672619005830e-04  3.8656778286755874e-04  3.4243539695793179e-04  3.4060014453634832e-04  3.4005355292491282e-04  3.4348868104351062e-04  3.4005721838670775e-04  3.4388260084338156e-04  3.3957728019826734e-04  3.3955632415905981e-04  3.4008240584140997e-04  3.4344729120950229e-04  3.4009347167013131e-04  3.4282988450906729e-04  3.3995924821791701e-04  3.4387732921942969e-04  3.4325949419231300e-04  3.4010646167158308e-04  3.4302829523813689e-04  3.4013378644646877e-04  3.4322441313883222e-04  3.4005938264267187e-04  3.5830183047569955e-04  3.5806004653148694e-04  3.4003462604810026e-04  3.4227243070366080e-04  3.4006890927034528e-04  3.4462127267186228e-04  3.3001414778459798e-04  3.3008424819617376e-04  3.4363050176337070e-04  3.4003763568902118e-04  3.4010857228999040e-04  3.4300005172351283e-04  3.4205390819068307e-04  3.4006821863610175e-04  3.4006913942409448e-04  3.4011389229246693e-04  3.4486828774756370e-04  3.4178674448615183e-04  3.3995411857926279e-04  3.4312430796854313e-04  3.4143683301717729e-04  3.4005489066316004e-04  3.3992449477936388e-04  3.4005510557723106e-04  3.4352640904854902e-04  3.4325407498495550e-04  3.4544636271448904e-04  3.3785186102325640e-04  3.3784667016315223e-04  3.4647601908965566e-04  3.4139531901158303e-04  3.4011854999056994e-04  3.4005384649673831e-04  3.5052980407090895e-04  3.3928635739012054e-04  3.4271291357052794e-04  3.4005133039960119e-04  3.4014969295237467e-04  3.4006767145502054e-04  3.4010716155640104e-04  3.4013677751454282e-04  2.9091878537912641e-04  2.8998335655248958e-04  3.4011388648060015e-04  3.4194755106945065e-04  3.4167642984555267e-04  3.4008342544435610e-04  3.4014182125313610e-04  3.4017692102226467e-04  3.4006585603726588e-04  3.4011293470232059e-04  3.3999169897626987e-04  3.4004359942402024e-04  3.4004152302455592e-04  3.4015684405548424e-04  3.4005377949793077e-04  3.7243293921156005e-04  3.7266173910859571e-04  3.4056867266410955e-04  3.3883276769996703e-04  3.3994824506618666e-04  3.5864576688159202e-04  3.6058975050161563e-04  3.4004585384059006e-04  3.4008670145888341e-04  3.4006467741165965e-04  3.4002187626019031e-04  3.3897807687399467e-04  3.4014577862647382e-04  3.4036827836000797e-04  3.4006107723100757e-04  3.4007979378418521e-04  3.4001092274822491e-04  5.1136103059023932e-04  5.1157536324087695e-04  3.3989916555819146e-04  3.3854548873577228e-04  3.4178211893370918e-04  3.4047608203629582e-04  3.4072484959505060e-04  3.4036168904954959e-04  3.4001976563279804e-04  3.3985350434147845e-04  3.3693902932990918e-04  3.4004679491768787e-04  3.4006509238944372e-04  3.3995400010651121e-04  3.3990444522844382e-04  3.3938482523137664e-04  3.4010537963473201e-04  3.4008635600380149e-04  3.4007562586399969e-04  3.4390566393528369e-04  3.4034640165523245e-04  3.4059930040904239e-04  3.2409053692820315e-04  3.4013115938517566e-04  3.4013391139273022e-04  3.1868430871143490e-04  3.2458487931401585e-04  3.4011009026125737e-04  3.4046610565495737e-04  3.4009519949953500e-04  3.4047794721087554e-04  3.4036684517771393e-04  3.4001775573995084e-04  3.4005281659830263e-04  3.4005912998605640e-04  3.4005313293061052e-04  3.4003677999509910e-04  3.3980777206631926e-04  3.4006219937943226e-04  3.4050128149419015e-04  3.4008846097611552e-04  3.4022293105951637e-04  3.4078612698901369e-04  3.4421010470884979e-04  3.4765679452822452e-04  3.4038221933185245e-04  3.4006594666751653e-04  3.4008090105487897e-04  3.4262384729146883e-04  2.8581526792354931e-04  2.1495211143009594e-04  3.4382342041440147e-04  3.4126865406124829e-04  3.4032988828076931e-04  3.4109484825464015e-04  3.4029175630871878e-04  3.4223500350319267e-04  3.4312070425469496e-04  3.4058661999439576e-04  3.3998744307193275e-04  3.4025308241816918e-04  2.9480722163388850e-04  3.4180477620483150e-04  3.4035713961434396e-04  3.4006950535910913e-04  3.4015565385447444e-04  3.4007559521941332e-04  3.4002263384674049e-04  3.4004746648263101e-04  3.4023965787282533e-04  3.4011329695323524e-04  3.4013219319028543e-04  3.3432848637504446e-04  3.4151260193863542e-04  3.5819714551319496e-04  3.4840446047143948e-04  3.5327022306698842e-04  3.4424559906159527e-04  3.5747609962643310e-04  3.6862261180253754e-04  3.4312628308083023e-04  3.4040544655595118e-04  3.4263921392285729e-04  3.4084102268247296e-04  3.3966774249625077e-04  3.3976989274341399e-04  3.3999046427820201e-04  3.4025494714071835e-04  4.1885881613962770e-04  4.2101672004964282e-04  3.4012221116635116e-04  3.3900090141271319e-04  3.4005623568905544e-04  3.3966470866644307e-04  3.3991886239558955e-04  3.3066049054937248e-04  3.4008814356511336e-04  3.4007633247909544e-04  3.4004409511084830e-04  3.4008852266775023e-04  3.4030922916172785e-04  4.0906350826212584e-04  4.0861223054379731e-04  3.4010404621699164e-04  3.4012859820645440e-04  3.3532040669468759e-04  3.4014854303102815e-04  3.4005729018845091e-04  3.4011545964971601e-04  3.4173593508346955e-04  3.4099683002407951e-04  3.3972234966050908e-04  3.3664952521365513e-04  3.5060488844533886e-04  3.4225817701203048e-04  3.4086653281699522e-04  3.4275003402423938e-04  5.5118224480516268e-04  3.4164629523924904e-04  3.4264483281992188e-04  3.4313169442654827e-04  3.4300822258849598e-04  3.4297199426343658e-04  3.4399665008978317e-04  3.8954561889793858e-04  3.8381492346437681e-04  3.4261600796350026e-04  3.5058349148383504e-04  3.3983044896887657e-04  3.4287450780600591e-04  3.4275027744190458e-04  3.4224165748495452e-04  3.4018684962146300e-04  3.4006765293709978e-04  3.4009448545535857e-04  3.3906310602816630e-04  3.4008786806056092e-04  3.4010556574096601e-04  3.4032914978152556e-04  3.4009797375919397e-04  3.4041750854863103e-04  3.4006029716138187e-04  3.3995115442315955e-04  3.4004049746311433e-04  2.1510986720745337e-04  3.4007815032789960e-04  3.4006216862645603e-04  3.3900598060281550e-04  3.4005092252462922e-04  3.4002740884011250e-04  3.3543726551929888e-04  3.3979775445393143e-04  3.4004670331193131e-04  3.3982301932067234e-04  3.3999841403282424e-04  3.4007289749176940e-04  3.4001062227758918e-04  3.4007363294040574e-04  3.1788718140147190e-04  3.4009705856656423e-04  3.4916724320804593e-04  3.4010739496434316e-04  3.4834629952930482e-04  3.4072438021906228e-04  3.4007895560000321e-04  3.4007180608727256e-04  3.3803840419156122e-04  3.4008077367671214e-04  3.4014951949379519e-04  3.3996091342557134e-04  3.4003080910904529e-04  3.4175077517981410e-04  3.4018248386857999e-04  3.4002992330631838e-04  3.3996192614569546e-04  3.4013036467799810e-04  3.3996121674947981e-04  3.4000159777201959e-04  3.4019887843385923e-04  3.4016781620867616e-04  3.3984760333942530e-04  3.4002481478624463e-04  3.4014100128489496e-04  3.4049481026211147e-04  3.3999738059229279e-04  3.4013619268879997e-04  3.4008132550970605e-04  3.4016628670044733e-04  3.4035623385251184e-04  3.4034403531828987e-04  3.3935964332395424e-04  3.3993780688192077e-04  3.4012460053214086e-04  3.4003709493637317e-04  3.3728819498961185e-04  3.4012535946473965e-04  3.3906943897047618e-04  3.4005126028274708e-04  3.4063627052369764e-04  3.2771422718865645e-04  3.4001544026541428e-04  3.4007051966608153e-04  3.4003015873000213e-04  3.4014672823875927e-04  3.4330650019888268e-04  3.4010389941918628e-04  3.8454784318355743e-04  3.8576043638603150e-04  3.4001609509284083e-04  3.4082011731396267e-04  3.4004260499260694e-04  3.3993036328233131e-04  3.4018194296683260e-04  3.4012185151939686e-04  3.4073605029455494e-04  3.3844261178100855e-04  3.4013696084329533e-04  2.9906293087501054e-04  3.4015095263381276e-04  3.4360153192271390e-04  3.4677164888108071e-04  3.3955969043514717e-04  3.4401275285169417e-04  3.4469192296069767e-04  3.3999521268440118e-04  3.3964621472155237e-04  3.0871665117491781e-04  4.5322232480414862e-04  4.5372647695466099e-04  5.9822719388257927e-04  5.9875346781683620e-04  3.4006008668402573e-04  3.4008157980278960e-04  3.4007836909245132e-04  3.4354438185856819e-04  3.4008319562684087e-04  3.4082853710565812e-04  3.4007054781871898e-04  3.4010684953560849e-04  3.4013283397989002e-04  3.4008566865821062e-04  3.3931150008768900e-04  3.4004319288631141e-04  3.4006706262995233e-04  3.4202498709865733e-04  3.4081433609969028e-04  3.4006141792460211e-04  3.4007737615218231e-04  3.4002086163466825e-04  3.3759566574568985e-04  3.3904492031367942e-04  3.4006406154785422e-04  3.4077072916939577e-04  3.3975830517357159e-04  3.3993010962631118e-04  3.4007197771370341e-04  3.4049820899778583e-04  3.4079655852492665e-04  3.5885671595350835e-04  3.4013171004721647e-04  3.4077370133101529e-04  3.4012801545940885e-04  3.4094953614100280e-04  3.4007714917498843e-04  3.4005523213962374e-04  3.4007717598682525e-04  3.3791765635582730e-04  3.3930901613323303e-04  3.4014075680802598e-04  5.1764676662019481e-04  5.1669271937943701e-04  3.4005408279899607e-04  3.4003233367064644e-04  3.3999289658808904e-04  3.3986022553400373e-04  3.3997247774475691e-04  3.3987819612141175e-04  3.3989606708328246e-04  3.5061619857414670e-04  3.4250825540056771e-04  3.4050010394302892e-04  3.4005479989579674e-04  3.4326631724967483e-04  3.4331115771406344e-04  3.2819116720229777e-04  3.5149180533863503e-04  3.4000172004279263e-04  3.3998365512781352e-04  3.4005201990972570e-04  3.4007214598830550e-04  3.4004164377720198e-04  3.3969813092785014e-04  3.3887021715126622e-04  3.3373758541705231e-04  3.3994364229940897e-04  3.3946244960002058e-04  3.3865267442219669e-04  3.4082318454950044e-04  2.0889690464651574e-04  3.3995137985880030e-04  3.4013344565772514e-04  3.3413592973528198e-04  3.7144957307564698e-04  3.4000439042143230e-04  3.3840419135110851e-04  3.4011494106891380e-04  3.4185321929975059e-04  3.4012424785332133e-04  3.4007403905396232e-04  3.4012368438123355e-04  3.4055027069080453e-04  3.3999073651384078e-04  3.4710404100079839e-04  3.3988281028101471e-04  3.4032690475268993e-04  3.4016789992679980e-04  5.1966052146550285e-04  3.4004691097204773e-04  3.3988176883363006e-04  3.4006069351094170e-04  3.4006244234027137e-04  3.4007913885356148e-04  3.4009125528150128e-04  3.4065454322689095e-04  3.4005376956765785e-04  3.1244328468770459e-04  3.1064668239183941e-04  3.3998310418666822e-04  3.4007429410950265e-04  3.4512920057978304e-04  3.4056325366003709e-04  3.3996417140059505e-04  3.4002912181321500e-04  3.3536595440633208e-04  3.3201047017995919e-04  3.4007217752456072e-04  3.4012863923552474e-04  5.1154993378279656e-04  3.4808514822294389e-04  3.6390176516383065e-04  3.3834518942970905e-04  3.3971917873235546e-04  3.3996282997827911e-04  2.9778236132733585e-04  3.3931693299358163e-04  3.4032735469547993e-04  3.4089800573516854e-04  3.4363600814392832e-04  3.4054046850659958e-04  3.4006287251250623e-04  3.4014456207699558e-04  3.3998994621346968e-04  3.4014380577759336e-04  3.4008357760006389e-04  3.4029497425874626e-04  3.4090397805829455e-04  1.9894910234079778e-04  3.4012363112533034e-04  3.3928839292129883e-04  3.4013310203958441e-04  3.3409665702919329e-04  3.4004682579256686e-04  3.4005259555042384e-04  3.4006829557029248e-04  3.4010051797726950e-04  3.3864073599163951e-04  3.3892553440517280e-04  3.4228880822402183e-04  3.3947077584044644e-04  3.4170945139061921e-04  3.4009397669190555e-04  3.3981416097454697e-04  3.3997883050398313e-04  3.4005309375263407e-04  3.4857043353412682e-04  3.4036893674620601e-04  3.4210820060224763e-04  3.4008238243448129e-04  3.4053037075041666e-04  3.5528524844887546e-04  3.9805347967428287e-04  3.3703157845048928e-04  3.4400109692696063e-04  3.5366882368464373e-04  3.3981964667108028e-04  3.4003192618311097e-04  3.3974781036736381e-04  3.4006951750658443e-04  3.4008961887529906e-04  3.4005838079714210e-04  3.4004921392466301e-04  3.4010933054742928e-04  3.4012302384878331e-04  3.4013163727030377e-04  3.4009562713002608e-04  3.4046781590031059e-04  3.3997445207065537e-04  3.4017427930742755e-04  3.4022688739786234e-04  3.4004129074447078e-04  3.6094575943398260e-04  4.0260237255438698e-04  3.4001721315013211e-04  3.4004373758139635e-04  3.4005534819975551e-04  3.4002391237485298e-04  3.4006607586279736e-04  3.4012225171419457e-04  3.4006074975771934e-04  3.4950387226720647e-04  3.4029786542022771e-04  3.3989729740032559e-04  3.3988008625721944e-04  3.3997616949698201e-04  2.9117582859297913e-04  3.3995288942749680e-04  3.4003367238768356e-04  3.4012285772671961e-04  3.3986146242907572e-04  4.6328805018384207e-04  3.4005096437824225e-04  3.4330755144714419e-04  3.4171695064183060e-04  3.4122184459879613e-04  3.3666813523223094e-04  3.4010827095919859e-04  3.3931600476245404e-04  3.4008274853408895e-04  3.3899822475052702e-04  3.4278710703166326e-04  3.4062663124273025e-04  3.3992745679017775e-04  3.4010791516860461e-04  3.3978578154345306e-04  3.4162818881724771e-04  3.3882688551109308e-04  3.3995706497525244e-04  3.3973895640605751e-04  3.3961536504036705e-04  3.4191247841364891e-04  3.5075188761304123e-04  3.4026207286626150e-04  3.4007230525202810e-04  4.6071783035091685e-04  3.4013134443373845e-04  3.3996080637951740e-04  3.4003509068723933e-04  3.4262230620278340e-04  4.0202069614805186e-04  3.8024650774441470e-04  3.2259783485060785e-04  3.8664223534202931e-04  3.3998261634573710e-04  3.4010088192624289e-04  3.3889148512234715e-04  3.4007032667782389e-04  3.3947991229966805e-04  3.4273834714853153e-04  3.3933629624891616e-04  3.4205390887270381e-04  3.3889683590537258e-04  3.4005514506971353e-04  3.4001382740607710e-04  3.4008483456697541e-04  3.3703384413640827e-04  3.3979661140571106e-04  3.3695941340359896e-04  3.3933540467455750e-04  3.4046066977166576e-04  3.4016349058608704e-04  3.4002671879808556e-04  3.4012069922801210e-04  3.4014360798230052e-04  3.3018636409158560e-04  3.3670926924094619e-04  3.4013301977767625e-04  3.4007995199685404e-04  3.4072683336765393e-04  3.4005278456601386e-04  3.4007346622304523e-04  3.4006904018599789e-04  3.4006640949733457e-04  3.3967193419828746e-04  3.3932010229050690e-04  3.4010171963506740e-04  3.3996838670032937e-04  3.4064585746155802e-04  3.4272593959912127e-04  3.4005048191459747e-04  3.3963124066993311e-04  3.4001381177171019e-04  3.3863147027371249e-04  3.4005829640293428e-04  3.4040753945626886e-04  3.4001106803652990e-04  3.3998705059303316e-04  3.3806232477490503e-04  3.4009708812761770e-04  2.6351858242039069e-04  2.5636675890722841e-04  3.4013590866284715e-04  3.4291488174607442e-04  3.4075314414962042e-04  3.4008825606587765e-04  3.4007385696585015e-04  3.3982185820238527e-04  4.9565774013968504e-04  3.9556783406339429e-04  4.9247545436801687e-04  3.3930567027335530e-04  3.4011705431071215e-04  3.3958375163599500e-04  3.4013086281884118e-04  3.3875099316631120e-04  3.4011823178707384e-04  3.3817205379257009e-04  3.3961158197354322e-04  3.3983276041355654e-04  3.3987306518077324e-04  3.4005591513753446e-04  3.4006605155523651e-04  3.3430874628825197e-04  3.2916331772398931e-04  3.3998389259041979e-04  3.4006892304222730e-04  3.4003557317797663e-04  3.4102873464690955e-04  3.3959052033516945e-04  3.3751956952201775e-04  3.3969328716140036e-04  3.3983747070708226e-04  3.4037611031142274e-04  3.3908868518679622e-04  3.3958965591095858e-04  3.4041842215134724e-04  3.4008573311475820e-04  3.4008333268568930e-04  3.4008398911878506e-04  3.4009412890874803e-04  3.4007682178130503e-04  3.4533518789558369e-04  3.4527526091617167e-04  3.4240730192715545e-04  3.3979450835077069e-04  3.4007494258399024e-04  3.9437448001510835e-04  3.4001221621504012e-04  3.4005012733336873e-04  3.4007975513987708e-04  3.4004269026097531e-04  3.4006890035353756e-04  3.4179194146123453e-04  3.4053820660402559e-04  3.4571324652006672e-04  3.8785945273127418e-04  4.2591117863882493e-04  4.2552056386081885e-04  3.9466338479207902e-04  3.4010468968801935e-04  3.4542854849642997e-04  3.4004743201891923e-04  3.3607982775677825e-04  3.4005697871336695e-04  3.4006733247113298e-04  3.3651439585098664e-04  3.4006174340122286e-04  3.3790436269539231e-04  3.4004968366218446e-04  3.3938642263295240e-04  3.4024575649357517e-04  3.4485220714888386e-04  3.4934377786414208e-04  3.4037824444680070e-04  3.7608365795266971e-04  3.4020769166710150e-04  4.3107335269621552e-04  3.8560832880629422e-04  3.4004311364490208e-04  3.4004625539085467e-04  3.3980056995057422e-04  3.4009990053542321e-04  3.3882120583169170e-04  3.4014222317199112e-04  3.2492983886553764e-04  3.3865855316499605e-04  3.3797301860232084e-04  3.4042890464986531e-04  3.4008424013913307e-04  3.4022860813455653e-04  5.4923512238311603e-04  5.2437929925017580e-04  5.4230592586110261e-04  3.6698244241515694e-04  3.4009478697609127e-04  3.4013019370766163e-04  3.3626288997779338e-04  2.4731455579375623e-04  3.36215742947103