<?xml version="1.0"?>
<VTKFile type="UnstructuredGrid"  version="0.1"  >
<UnstructuredGrid>
<Piece  NumberOfPoints="2525" NumberOfCells="4203">
<Points>
<DataArray  type="Float64"  NumberOfComponents="3"  format="ascii">1.25 0 0  1.249623523370255 0.03067653565364036 0  1.248494320256466 0.06133459290927252 0  1.246613070848363 0.09195570449958429 0  1.243980908340246 0.1225214254119508 0  1.240599418248387 0.1530133439990203 0  1.236470637455976 0.1834130930692022 0  1.231597052986177 0.2137023609503765 0  1.225981600504038 0.2438629025201603 0  1.219627662548161 0.2738765501960873 0  1.21253906649318 0.3037252248790798 0  1.2047200822443 0.333390946843623 0  1.196175419665261 0.3628558465680779 0  1.186910225741296 0.3921021754986144 0  1.176930081478776 0.4211123167402751 0  1.166240998543424 0.4498687956687352 0  1.154849415639108 0.4783542904563622 0  1.142762194629413 0.5065516425062373 0  1.129986616404304 0.5344438667878526 0  1.116530376494394 0.5620141620682582 0  1.102401580435444 0.5892459210324971 0  1.087608738885889 0.61612274028723 0  1.07216076250034 0.642628430241527 0  1.056066956562134 0.6687470248588714 0  1.039337015378182 0.6944627912745027 0  1.02198101643948 0.7197602392723067 0  1.004009414350806 0.7446241306155417 0  0.9854330345332579 0.7690394882257835 0  0.9662630667034212 0.7929916052045569 0  0.9465110581331058 0.8164660536922209 0  0.9261889066936989 0.8394486935587729 0  0.9053088536893338 0.8619256809213336 0  0.8838834764831844 0.8838834764831843 0  0.8619256809213337 0.9053088536893337 0  0.8394486935587729 0.9261889066936989 0  0.8164660536922209 0.9465110581331055 0  0.7929916052045569 0.9662630667034212 0  0.7690394882257835 0.9854330345332578 0  0.7446241306155419 1.004009414350806 0  0.7197602392723067 1.02198101643948 0  0.6944627912745028 1.039337015378182 0  0.6687470248588716 1.056066956562134 0  0.642628430241527 1.07216076250034 0  0.6161227402872301 1.087608738885889 0  0.5892459210324973 1.102401580435444 0  0.5620141620682583 1.116530376494394 0  0.5344438667878527 1.129986616404304 0  0.5065516425062373 1.142762194629413 0  0.4783542904563623 1.154849415639108 0  0.4498687956687353 1.166240998543424 0  0.4211123167402751 1.176930081478776 0  0.3921021754986145 1.186910225741296 0  0.3628558465680779 1.196175419665261 0  0.333390946843623 1.2047200822443 0  0.30372522487908 1.21253906649318 0  0.2738765501960872 1.219627662548161 0  0.2438629025201604 1.225981600504038 0  0.2137023609503767 1.231597052986177 0  0.1834130930692022 1.236470637455976 0  0.1530133439990203 1.240599418248387 0  0.122521425411951 1.243980908340246 0  0.09195570449958432 1.246613070848363 0  0.06133459290927266 1.248494320256466 0  0.03067653565364033 1.249623523370255 0  7.654042494670958e-17 1.25 0  -0.03067653565364018 1.249623523370255 0  -0.06133459290927251 1.248494320256466 0  -0.09195570449958416 1.246613070848363 0  -0.1225214254119508 1.243980908340246 0  -0.1530133439990202 1.240599418248387 0  -0.1834130930692021 1.236470637455976 0  -0.2137023609503766 1.231597052986177 0  -0.2438629025201602 1.225981600504038 0  -0.2738765501960871 1.219627662548161 0  -0.3037252248790798 1.21253906649318 0  -0.3333909468436229 1.2047200822443 0  -0.3628558465680777 1.196175419665261 0  -0.3921021754986143 1.186910225741296 0  -0.4211123167402749 1.176930081478776 0  -0.4498687956687352 1.166240998543424 0  -0.4783542904563621 1.154849415639108 0  -0.5065516425062372 1.142762194629413 0  -0.5344438667878524 1.129986616404304 0  -0.5620141620682584 1.116530376494394 0  -0.5892459210324972 1.102401580435444 0  -0.61612274028723 1.087608738885889 0  -0.642628430241527 1.07216076250034 0  -0.6687470248588713 1.056066956562134 0  -0.6944627912745025 1.039337015378182 0  -0.7197602392723067 1.02198101643948 0  -0.7446241306155417 1.004009414350806 0  -0.7690394882257834 0.9854330345332579 0  -0.7929916052045567 0.9662630667034213 0  -0.8164660536922207 0.9465110581331059 0  -0.8394486935587731 0.9261889066936988 0  -0.8619256809213337 0.9053088536893337 0  -0.8838834764831843 0.8838834764831844 0  -0.9053088536893334 0.8619256809213338 0  -0.9261889066936986 0.8394486935587732 0  -0.9465110581331058 0.8164660536922208 0  -0.9662630667034212 0.7929916052045569 0  -0.9854330345332578 0.7690394882257836 0  -1.004009414350806 0.7446241306155419 0  -1.02198101643948 0.7197602392723068 0  -1.039337015378182 0.6944627912745027 0  -1.056066956562134 0.6687470248588714 0  -1.07216076250034 0.6426284302415273 0  -1.087608738885889 0.6161227402872302 0  -1.102401580435444 0.5892459210324973 0  -1.116530376494394 0.5620141620682586 0  -1.129986616404304 0.5344438667878525 0  -1.142762194629413 0.5065516425062374 0  -1.154849415639108 0.4783542904563624 0  -1.166240998543424 0.4498687956687354 0  -1.176930081478776 0.4211123167402754 0  -1.186910225741296 0.3921021754986143 0  -1.196175419665261 0.362855846568078 0  -1.2047200822443 0.3333909468436231 0  -1.21253906649318 0.3037252248790801 0  -1.219627662548161 0.2738765501960876 0  -1.225981600504038 0.2438629025201608 0  -1.231597052986177 0.2137023609503765 0  -1.236470637455976 0.1834130930692023 0  -1.240599418248387 0.1530133439990204 0  -1.243980908340246 0.122521425411951 0  -1.246613070848363 0.09195570449958466 0  -1.248494320256466 0.06133459290927246 0  -1.249623523370255 0.03067653565364041 0  -1.25 1.530808498934192e-16 0  -1.249623523370255 -0.0306765356536401 0  -1.248494320256466 -0.06133459290927215 0  -1.246613070848363 -0.09195570449958437 0  -1.243980908340246 -0.1225214254119507 0  -1.240599418248387 -0.1530133439990201 0  -1.236470637455976 -0.183413093069202 0  -1.231597052986177 -0.2137023609503762 0  -1.225981600504038 -0.2438629025201605 0  -1.219627662548161 -0.2738765501960873 0  -1.21253906649318 -0.3037252248790798 0  -1.2047200822443 -0.3333909468436228 0  -1.196175419665261 -0.3628558465680776 0  -1.186910225741296 -0.392102175498614 0  -1.176930081478776 -0.4211123167402752 0  -1.166240998543424 -0.4498687956687352 0  -1.154849415639108 -0.4783542904563621 0  -1.142762194629413 -0.5065516425062371 0  -1.129986616404304 -0.5344438667878523 0  -1.116530376494394 -0.5620141620682583 0  -1.102401580435444 -0.5892459210324971 0  -1.087608738885889 -0.6161227402872299 0  -1.07216076250034 -0.6426284302415269 0  -1.056066956562134 -0.6687470248588712 0  -1.039337015378182 -0.6944627912745025 0  -1.02198101643948 -0.7197602392723067 0  -1.004009414350806 -0.7446241306155416 0  -0.9854330345332579 -0.7690394882257834 0  -0.9662630667034213 -0.7929916052045566 0  -0.946511058133106 -0.8164660536922207 0  -0.9261889066936989 -0.8394486935587731 0  -0.9053088536893338 -0.8619256809213336 0  -0.8838834764831847 -0.8838834764831843 0  -0.8619256809213338 -0.9053088536893334 0  -0.8394486935587733 -0.9261889066936986 0  -0.8164660536922214 -0.9465110581331053 0  -0.7929916052045574 -0.9662630667034209 0  -0.7690394882257841 -0.9854330345332574 0  -0.7446241306155414 -1.004009414350806 0  -0.7197602392723066 -1.02198101643948 0  -0.6944627912745027 -1.039337015378182 0  -0.6687470248588716 -1.056066956562134 0  -0.6426284302415273 -1.07216076250034 0  -0.6161227402872302 -1.087608738885889 0  -0.5892459210324973 -1.102401580435444 0  -0.5620141620682586 -1.116530376494394 0  -0.5344438667878531 -1.129986616404304 0  -0.506551642506238 -1.142762194629413 0  -0.4783542904563629 -1.154849415639108 0  -0.4498687956687349 -1.166240998543424 0  -0.4211123167402749 -1.176930081478776 0  -0.3921021754986143 -1.186910225741296 0  -0.3628558465680781 -1.196175419665261 0  -0.3333909468436231 -1.2047200822443 0  -0.3037252248790802 -1.21253906649318 0  -0.2738765501960876 -1.219627662548161 0  -0.2438629025201608 -1.225981600504038 0  -0.2137023609503771 -1.231597052986176 0  -0.1834130930692029 -1.236470637455976 0  -0.1530133439990199 -1.240599418248387 0  -0.1225214254119506 -1.243980908340246 0  -0.09195570449958419 -1.246613070848363 0  -0.06133459290927254 -1.248494320256466 0  -0.03067653565364049 -1.249623523370255 0  -2.296212748401287e-16 -1.25 0  0.03067653565364003 -1.249623523370255 0  0.06133459290927207 -1.248494320256466 0  0.09195570449958373 -1.246613070848363 0  0.1225214254119501 -1.243980908340246 0  0.1530133439990195 -1.240599418248387 0  0.1834130930692024 -1.236470637455976 0  0.2137023609503766 -1.231597052986177 0  0.2438629025201604 -1.225981600504038 0  0.2738765501960872 -1.219627662548161 0  0.3037252248790797 -1.21253906649318 0  0.3333909468436227 -1.2047200822443 0  0.3628558465680776 -1.196175419665261 0  0.3921021754986139 -1.186910225741296 0  0.4211123167402745 -1.176930081478776 0  0.4498687956687345 -1.166240998543424 0  0.4783542904563625 -1.154849415639108 0  0.5065516425062375 -1.142762194629413 0  0.5344438667878527 -1.129986616404304 0  0.5620141620682583 -1.116530376494394 0  0.589245921032497 -1.102401580435444 0  0.6161227402872298 -1.087608738885889 0  0.6426284302415269 -1.07216076250034 0  0.6687470248588712 -1.056066956562134 0  0.6944627912745023 -1.039337015378182 0  0.7197602392723061 -1.02198101643948 0  0.7446241306155411 -1.004009414350806 0  0.7690394882257838 -0.9854330345332576 0  0.792991605204557 -0.9662630667034211 0  0.8164660536922209 -0.9465110581331058 0  0.8394486935587729 -0.9261889066936989 0  0.8619256809213336 -0.9053088536893338 0  0.8838834764831842 -0.8838834764831847 0  0.9053088536893333 -0.8619256809213339 0  0.9261889066936986 -0.8394486935587733 0  0.9465110581331053 -0.8164660536922214 0  0.9662630667034209 -0.7929916052045574 0  0.9854330345332574 -0.7690394882257843 0  1.004009414350806 -0.7446241306155416 0  1.02198101643948 -0.7197602392723066 0  1.039337015378182 -0.6944627912745027 0  1.056066956562134 -0.6687470248588716 0  1.07216076250034 -0.6426284302415274 0  1.087608738885889 -0.6161227402872304 0  1.102401580435443 -0.5892459210324974 0  1.116530376494394 -0.5620141620682587 0  1.129986616404304 -0.5344438667878532 0  1.142762194629413 -0.50655164250623
[...]
<PointData  Scalars="f_58"> 
<DataArray  type="Float64"  Name="f_58"  format="ascii">-4.1332911474345110e+01  -4.1933858918419560e+01  -4.2639926428222928e+01  -4.3327148701355434e+01  -4.3995130596167854e+01  -4.4727761564640119e+01  -4.5513088504141294e+01  -4.6213256526863930e+01  -4.6891245796274447e+01  -4.7551848820500418e+01  -4.8243077433209457e+01  -4.8764278598394682e+01  -4.9191966310506551e+01  -4.9490825785492383e+01  -4.9837138381263628e+01  -5.0196009909863612e+01  -5.0585260937933292e+01  -5.1147386862671226e+01  -5.1769124845130783e+01  -5.2510682444924988e+01  -5.3150252628168886e+01  -5.3805960340381510e+01  -5.4394412448600882e+01  -5.4851543791225716e+01  -5.5339074834119423e+01  -5.5764396375666529e+01  -5.6270815895089846e+01  -5.6698183764910610e+01  -5.7139149926187969e+01  -5.7609863468692268e+01  -5.8109036260507004e+01  -5.8690394676341413e+01  -5.9197140431346419e+01  -5.9623815518683926e+01  -6.0097216744092719e+01  -6.0533898606938358e+01  -6.0822887281618677e+01  -6.1293553409301097e+01  -6.1922702696335250e+01  -6.2339942202642284e+01  -6.2761160699579740e+01  -6.3169912068242283e+01  -6.3699937977117386e+01  -6.4012113124385579e+01  -6.4543638095455151e+01  -6.5094341728489269e+01  -6.5454995561857672e+01  -6.6019675862969152e+01  -6.6550888669903543e+01  -6.7041250651226278e+01  -6.7351604465630999e+01  -6.7756946287703755e+01  -6.8379312962502553e+01  -6.8927099057881989e+01  -6.9290161250743836e+01  -6.9613507446940929e+01  -6.9763042594427844e+01  -6.9981787937392568e+01  -7.0340948809675169e+01  -7.0860990747706651e+01  -7.0990737166808216e+01  -7.1362604992951219e+01  -7.1487589090036394e+01  -7.1810787674211554e+01  -7.2317326844767479e+01  -7.2237884604924560e+01  -7.2857006426076524e+01  -7.3111871076616552e+01  -7.2909556684794367e+01  -7.2870154944174857e+01  -7.3364220775018438e+01  -7.3655591276714091e+01  -7.3115863691060085e+01  -7.3299693867434357e+01  -7.3534673271779610e+01  -7.3036186774912792e+01  -7.3520480357783555e+01  -7.3485539832520502e+01  -7.2676698020612790e+01  -7.2088073395446912e+01  -7.2007466242644597e+01  -7.1258381075735471e+01  -6.9756383431118763e+01  -6.8885078815203457e+01  -6.8212584202135076e+01  -6.6972282287563786e+01  -6.5790166941882603e+01  -6.1637579748995151e+01  -6.0462038793602602e+01  -5.8164294834075285e+01  -5.4091003577736338e+01  -5.0258881358096410e+01  -4.6847038895114771e+01  -4.3782637330334161e+01  -3.9546235862542439e+01  -3.4421914645840843e+01  -2.9277037426402966e+01  -2.1974668212818646e+01  -2.0361931199291238e+01  -1.6185970333460848e+01  -6.0173805659892121e+00  4.9139356051345624e+00  1.8655856452584221e+01  2.6003290134484470e+01  3.9933718380439139e+01  5.1947031050147423e+01  7.3628103868121272e+01  9.0300136351303564e+01  1.1713068555041548e+02  1.4957168035049619e+02  1.7590254299078811e+02  2.0135051080479181e+02  2.4678473914376156e+02  3.0244432514357510e+02  3.6664882842354461e+02  4.2020602727371084e+02  4.8057944082083020e+02  5.4590237760656191e+02  5.9907173544098816e+02  6.4681524543426156e+02  6.9469941024966136e+02  7.4146388211082569e+02  7.7184881060616613e+02  7.8663735344074621e+02  7.3653141512163836e+02  6.7575421768355784e+02  6.1892152710172240e+02  5.6747637741991343e+02  5.1895500122227088e+02  4.7554085041055214e+02  4.4844905352424206e+02  4.3898402075807326e+02  4.4407632769513651e+02  4.7424097229266670e+02  4.8624147145337349e+02  5.9502798377400734e+02  7.1495211126470122e+02  8.1208552801835060e+02  8.9240951084209155e+02  9.5116376189866764e+02  9.7716145588094105e+02  9.6212376648167049e+02  9.4024011492184002e+02  9.1801646859751986e+02  8.6950013376914808e+02  8.2291508885092753e+02  7.8798386691961502e+02  7.5191043420765425e+02  7.1958075405648242e+02  6.8910463471981939e+02  6.6123575707639884e+02  6.3465975761792947e+02  5.9822360238478814e+02  5.4549979612064715e+02  5.1214687786884667e+02  4.7399587793976173e+02  4.4091217387913292e+02  4.0580892051438144e+02  3.7825748922267820e+02  3.5944100676426234e+02  3.3397036776097178e+02  3.1158248081832829e+02  2.8440035011671057e+02  2.6536692972447793e+02  2.4674315283676628e+02  2.2921256740433495e+02  2.1865163569726701e+02  2.0596235748244044e+02  1.8327756959682699e+02  1.6703970324446783e+02  1.5619166186059988e+02  1.3968155263181706e+02  1.3244391275491301e+02  1.2801844963596679e+02  1.2038746866760047e+02  1.1107658331810498e+02  1.0387494663605574e+02  9.7897914593942701e+01  9.1628688671496377e+01  8.6450741427871733e+01  8.0803068914176990e+01  7.5724741466989130e+01  7.0921018910721997e+01  6.6089470983022466e+01  6.0628800171193760e+01  5.5510393012588814e+01  5.0679093344263670e+01  4.5895022622110432e+01  4.0966237069139112e+01  3.8049238480926903e+01  3.6958775612099579e+01  3.4657433565791301e+01  2.9002448545514344e+01  2.6161036669412919e+01  2.4301152128503251e+01  2.2086867728046958e+01  1.9531810360877362e+01  1.7254560942618074e+01  1.4686767153731950e+01  1.1315135478883143e+01  9.3107088286708262e+00  7.5174678880160499e+00  6.0925185049862289e+00  4.4740542401466072e+00  3.5164866540350914e+00  2.3667802960086286e+00  2.5177150883533904e-03  -2.3096027715301846e+00  -3.5656328680903986e+00  -5.2078342007534504e+00  -6.2905054826168803e+00  -7.6390182550138954e+00  -8.2366047071708888e+00  -8.9852838397629089e+00  -1.0342767705670608e+01  -1.0970164603103543e+01  -1.2217369177369228e+01  -1.3079483295165000e+01  -1.3817294231262446e+01  -1.4436230900770324e+01  -1.5313203721556617e+01  -1.6150081648779199e+01  -1.6897004987664221e+01  -1.7888793664033617e+01  -1.8592899454497726e+01  -1.9110459159949659e+01  -1.9720085757541028e+01  -2.0894876843236457e+01  -2.1317182875978052e+01  -2.1697708497220734e+01  -2.2619329604788472e+01  -2.3603720358491262e+01  -2.4335166932628141e+01  -2.5269168750757142e+01  -2.6308874222125567e+01  -2.7150801728036452e+01  -2.7708118885073002e+01  -2.8231086985353912e+01  -2.8822326840420569e+01  -2.9382623987565161e+01  -2.9768239032900393e+01  -3.0199429377272541e+01  -3.0824103232735528e+01  -3.1526037945192705e+01  -3.2136698254660871e+01  -3.2900469591856172e+01  -3.3660140726301250e+01  -3.4363167899779917e+01  -3.5049523868174767e+01  -3.5718291673831565e+01  -3.6749695499379463e+01  -3.7615669877115259e+01  -3.8409424148518127e+01  -3.9233673460008717e+01  -3.9950824095298543e+01  -4.0683420332556153e+01  -3.4775510678213983e+01  -3.3927376672796065e+01  -3.2472859433261519e+01  -3.1158656031094029e+01  -2.9984001095517208e+01  -2.9171576923184734e+01  -2.8761182659843161e+01  -2.7978912419285315e+01  -2.7145383043006468e+01  -2.5979501998203130e+01  -2.4951163872775950e+01  -2.4382937684770901e+01  -2.3407804359068493e+01  -2.1837869466282537e+01  -2.1312405831671086e+01  -2.0597627662720452e+01  -1.9426830135193391e+01  -1.8532090554128104e+01  -1.7773835908304793e+01  -1.7511156921130137e+01  -1.6872942414328449e+01  -1.6382208476911320e+01  -1.5838498132990249e+01  -1.4808504878537367e+01  -1.3876359583653935e+01  -1.2474821510253030e+01  -1.1177384208838617e+01  -9.5670448480730794e+00  -8.4310920047479740e+00  -6.6709124603084478e+00  -6.0414177529972193e+00  -5.5341274248072292e+00  -3.8912627864918417e+00  -2.3595974457670588e+00  -8.4448494642511118e-01  7.3409402333847928e-01  3.1480103649461388e+00  5.2479860676321284e+00  6.2561060438877973e+00  6.6494379989449035e+00  9.2741926150061680e+00  1.1016445734353773e+01  1.2882637425597583e+01  1.4705854723259478e+01  1.7302963751159819e+01  1.9414092372828435e+01  2.1448408441863030e+01  2.4119029870955632e+01  2.6187346538729130e+01  2.9035693388384797e+01  3.1329586246541687e+01  3.3750596799041567e+01  3.6339792179778911e+01  3.8756691755397640e+01  4.1868042232540361e+01  4.5707013853898161e+01  4.8382286378162981e+01  5.1589286461902006e+01  5.5332902237279960e+01  5.8769788122975356e+01  6.4916985687510646e+01  7.0686411357398029e+01  7.5342649723305627e+01  7.8397223508540435e+01  8.2884043847299665e+01  8.5868439688794837e+01  8.9345079791662499e+01  9.4858122540885674e+01  9.8707149315025745e+01  1.0402662202692338e+02  1.0991889822689687e+02  1.1761972584251063e+02  1.2378592924446521e+02  1.3061126476878462e+02  1.3919270938103480e+02  1.4741752715256536e+02  1.5657953996211643e+02  1.6603505603367884e+02  1.8093428939634020e+02  1.9330676304680674e+02  2.0300419302344341e+02  2.1868689981527498e+02  2.3247058786750273e+02  2.4001074028268209e+02  2.5066645069074909e+02  2.6721753964919731e+02  2.8877381307843120e+02  3.0886932760634113e+02  3.2623101718042233e+02  3.4369151269751529e+02  3.6265566372062301e+02  3.8285587671934917e+02  4.0081802105909310e+02  4.2322610253006411e+02  4.5278809335358471e+02  4.8706264444323386e+02  5.1461205444825146e+02  5.4440653892410660e+02  5.7546373247525958e+02  6.1352952358523157e+02  6.4477354705042728e+02  6.6654418174670855e+02  6.8624971170229685e+02  7.0855071917551356e+02  7.3459479190672607e+02  7.6420476461201679e+02  7.9693495522524097e+02  8.2790448317354367e+02  8.6299955661342028e+02  9.0478543264196639e+02  9.4515604041972188e+02  9.7542670519963156e+02  1.0041504046033693e+03  1.0331771740233305e+03  1.0282250106083127e+03  9.9304956582127056e+02  9.4745814217132045e+02  8.8689779682358380e+02  8.1465895405327933e+02  7.3340696294177371e+02  6.4066273339648581e+02  5.2740856893828584e+02  4.3756475457646673e+02  4.5055267537683540e+02  4.4534105050365713e+02  4.4270057016929582e+02  4.4891035049652828e+02  4.6419281946225169e+02  4.9079207855634365e+02  5.2795585532645998e+02  5.6998904526412332e+02  6.1320610156373448e+02  6.5917214227482555e+02  7.0763337852305267e+02  7.5726080000933246e+02  8.0514179854161671e+02  8.3911631048514926e+02  7.8335438301777788e+02  7.4089303995236776e+02  6.9933378847888889e+02  6.5943674262665547e+02  6.1900219567334955e+02  5.7589058947753495e+02  5.2610126620052779e+02  4.6820467755978564e+02  4.1827081653590807e+02  3.6888032755609225e+02  3.0902446874817417e+02  2.6425648162570172e+02  2.2376862058769191e+02  1.8982815489050645e+02  1.6913265625894877e+02  1.4756887232041322e+02  1.1975682529208126e+02  9.4538047221661159e+01  8.1151960113782962e+01  6.2514862504299984e+01  4.8204957173808310e+01  3.8905430515277850e+01  2.7567249145808315e+01  1.8174228272079617e+01  1.0815288819849155e+01  1.4579845531681890e-01  -8.6699729629149633e+00  -1.7168121649776534e+01  -2.0396254035524247e+01  -2.2673149071992359e+01  -2.3977921241963450e+01  -3.1137282325517962e+01  -3.4023459987656707e+01  -4.0149816246885180e+01  -4.3039827099022595e+01  -4.4730155704620152e+01  -4.7764993012500945e+01  -5.0415031404444676e+01  -5.3488435693518333e+01  -5.6060795375078392e+01  -5.7864854790604767e+01  -6.0352311334047407e+01  -6.2494434063654168e+01  -6.3604357279118680e+01  -6.4152992249647227e+01  -6.5978045969607223e+01  -6.6880190068035688e+01  -6.7474765501790088e+01  -6.8179020328993545e+01  -6.9050388610527236e+01  -6.9432873425015742e+01  -7.0139125653275698e+01  -7.0437024509770268e+01  -7.0298681002670023e+01  -7.0606459848125212e+01  -7.0344705643377935e+01  -6.9878238474265885e+01  -7.0452565716870723e+01  -7.0591361565951090e+01  -7.0624758249437207e+01  -7.0520157931589139e+01  -7.0345172919576470e+01  -7.0302494411491878e+01  -7.0175518484976621e+01  -6.9933500739418577e+01  -6.9978767271672069e+01  -6.9978455146141243e+01  -6.9530714059718548e+01  -6.8774800233940780e+01  -6.8151950395461085e+01  -6.7761661499122937e+01  -6.7408572872282562e+01  -6.7162480772527999e+01  -6.7003000806575002e+01  -6.6468790027028589e+01  -6.6160846205279782e+01  -6.5596031748952853e+01  -6.5015245232401327e+01  -6.4330755518758295e+01  -6.3920691531563129e+01  -6.3508031158248905e+01  -6.3048305362691544e+01  -6.2528480618130224e+01  -6.1862894089881841e+01  -6.1131547291112931e+01  -6.0486996670043062e+01  -5.9962081839745366e+01  -5.9283634890340835e+01  -5.8734397961480873e+01  -5.8482243856534225e+01  -5.7923597232608287e+01  -5.7201303775289382e+01  -5.6520614505887025e+01  -5.5721908451510174e+01  -5.4853998985146447e+01  -5.4163330876110855e+01  -5.3521977409755351e+01  -5.3212443141083000e+01  -5.2816888794787566e+01  -5.2195294513612971e+01  -5.1309579341379781e+01  -5.0238595259866585e+01  -4.9565328738985500e+01  -4.8770736343202998e+01  -4.8206942832283723e+01  -4.7645514043340249e+01  -4.6794140411682243e+01  -4.6118221289932222e+01  -4.5522178848539149e+01  -4.4430185369024976e+01  -4.3015225078916465e+01  -4.1958989840331178e+01  -4.0684562948033957e+01  -3.9655725017006382e+01  -3.8662640519729500e+01  -3.7921018709289150e+01  -3.7104231408693181e+01  -3.6032493594584267e+01  -3.5378449721399726e+01  -3.7097633863652348e+01  -4.4749171684930168e+01  -3.0574608399473604e+01  -5.0100501712805730e+01  -2.3272900056016852e+01  -5.4744149760971084e+01  -1.6291388503611589e+01  -5.8738445941077082e+01  -9.6475728943104873e+00  -6.2702534853181085e+01  -2.9971453322253963e+00  -6.5651250648825055e+01  6.9621861155711215e+00  2.0091798515705751e+01  -6.8256837591867907e+01  -7.0134298167330343e+01  3.1156504165246357e+01  -3.5019213035894616e+01  -4.2711801472633539e+01  -4.8502702183407649e+01  -2.8412545866211634e+01  -3.9200436823627058e+01  -3.2217953480963040e+01  4.7717628539813703e+01  -7.1574377758198196e+01  -5.3419084154565979e+01  -2.1698242402648916e+01  -4.5962182524281587e+01  -2.5147343889267887e+01  -5.1183510358157385e+01  -1.7616172547244631e+01  -1.5094464872221867e+01  -5.7591874707200226e+01  -4.0124926815845775e+01  -4.5968767525645269e+01  -5.5704517323311428e+01  -7.2048320645335551e+01  6.5701563579645764e+01  -3.1303013790883369e+01  -1.1312193883353578e+01  -6.1443500718743572e+01  -5.0788640471757084e+01  -2.5729295334960668e+01  -3.4831071098998187e+01  -5.9561561692444485e+01  -8.4334812952107221e+00  -1.9622458339793852e+01  -4.2246740319650002e+01  -5.5631185379266995e+01  -4.6254924451774437e+00  8.2601341402359736e+01  -7.1851138198552619e+01  -2.7734711991900465e+01  -4.8530918566273456e+01  -7.5701271405174708e-01  -6.4915355648479448e+01  -6.0002251104034364e+01  -2.0454459687575984e+01  -1.3194047367471205e+01  5.6327704142842503e+00  -6.3269971544665381e+01  -5.3159943063411866e+01  -6.7817349312091181e+01  9.2413614093709437e+00  -7.0837232853996710e+01  1.0129603879525268e+02  -1.3868674882020711e+01  -6.3283062939879137e+01  -6.2449033247341985e+00  -6.1104685220504557e+01  -5.7324833498103828e+01  -6.5698672151259331e+01  1.6708758703449522e+01  -7.8924706817382475e+00  1.2582111631060013e+02  -4.6908662424848458e+01  -6.9435109102467806e+01  -6.8357256210838472e+01  -3.3044307882462036e+01  -4.1961533847070321e+01  -2.6094028457004246e+01  -6.9909478740855064e+01  -6.6531951270817544e+01  3.5809053506083890e+00  2.1669841202592949e+01  -1.9112604351746587e+01  -5.2855391906362883e+01  4.5779277900296955e-01  2.8102725540360549e+01  -3.7912897852297000e+01  -3.4089385815884484e+01  1.0332459802077423e+01  -1.4122815519771084e+01  -4.8046252691688281e+01  -6.6117940206087937e+01  1.5299274772035045e+02  -5.2679402349132339e+01  -6.6993208229605301e+01  -3.7245748483962345e+01  -7.1408257781777337e+01  -4.4581863483570032e+01  -5.7283084798176972e+01  -6.9153245239193382e+01  -2.8066154734418046e+01  3.6179090643487449e+01  -7.0028022547900704e+01  1.2905643523721718e+01  4.4868281141645163e+01  -4.2307994692187989e+01  -2.9714755584874741e+01  -4.9235248472325466e+01  -5.1808767336596929e+01  -4.0040698763703134e+01  -5.6203677901432325e+00  -3.2309686724921484e+01  -3.8335396921460905e+01  -3.1674785665724364e+01  -4.9626996375421093e+01  -4.5871527626901212e+01  -3.9066124261838617e+01  -3.5094073443358141e+01  -3.0707838133658424e+01  -6.1172228710440628e+01  -4.3162259671449434e+01  -2.4462886874917182e+01  -5.7129949286209012e+01  -2.6045696558167137e+01  -2.9073327693465387e+01  -5.9854151091156339e+01  1.9649682536490096e+02  -5.4504394948357721e+01  -4.6887160497153417e+01  -2.1856233157399036e+01  -2.4422172619239429e+01  -5.9064605774874487e+01  -2.9216324311090137e+01  -4.4003477048953251e+01  2.6105709234544250e+01  -7.0841244516438493e+01  -4.9186424764468896e+01  -4.8116669004919849e+01  -3.5056890705248463e+01  -6.4235471022037075e+01  -1.8185521565487655e+01  -2.3697125470828311e+01  -2.7914379017477948e+01  2.2701261376415239e+01  -7.2191746390562429e+01  -6.4064337753305267e+01  2.5912924431219495e+00  5.1030450755817526e+01  -5.1189362700855220e+01  -4.4903356160079078e+01  -1.7292484973835979e+01  -3.5821510114089115e+01  -2.1837315326099215e+01  -7.1119370781479574e+01  6.0062063185963012e+01  -4.1859768685387060e+01  -5.3806323071672985e+01  -5.4425871569487171e+01  -1.9336729550941151e+01  -2.1577576926712482e+01  -2.0207947189998215e+01  -5.0332122604393334e+01  -6.6902950413773524e+01  -1.5570522582801980e+01  -1.6322012639001930e+01  -8.8296088196831715e+00  -6.9101107251521455e+01  -3.6135769461267266e+01  -5.6140378803140180e+01  -5.8517023069085916e+01  3.7070259763670087e+01  -5.1276951418280895e+01  2.3844910396376525e+02  -1.6311017297461987e+01  -1.2782934546512251e+01  -5.5476266211119714e+01  -6.1285483448041660e+01  -5.7234033678206544e+01  -7.2339927142366278e+01  4.1055972284850149e+01  -1.5425139121207280e+01  -7.2591941086952289e+01  6.9492832919031358e+01  -6.2563416612141296e+01  -5.5007350585636722e+01  -9.1204592688661101e+00  -1.2114068309921114e+01  -1.3559570178276024e+01  -1.0685088235302002e+01  -5.2760647457889753e+01  -6.0274438457654654e+01  -4.4360931173291727e+00  -1.1797310738076130e+01  -4.0807502603999261e+01  -5.9659105479466533e+01  -5.8016774014381554e+01  2.4370987931884031e+01  -8.1652727837824557e+00  -7.1028884936214155e+01  7.8523932682603402e+01  -4.0029577271069932e+01  -6.4376720613072720e+01  5.2299521651174764e+01  -1.0052675962408952e+00  -4.4656989641821156e+01  -5.9097414171877700e+00  -4.7507027317385237e+01  1.0325402002175631e+01  5.1452377254526587e+00  -5.8793648167744664e+01  -5.1648916228876438e+01  -7.2872394383444927e+01  -7.3009622537371385e+01  -4.7112178476297089e+01  -7.4430601128673377e+00  -6.5919749004277307e+01  -5.1651815173843811e+00  -1.4704714247818937e+00  -3.7255849532940658e+01  -3.2353846011443501e+01  -6.2318021665523226e+01  -7.1164577403731016e+01  -5.5615443004458264e+01  2.7426468226207010e+02  -2.9550838529019149e+01  -3.0551252379636793e+01  -6.3849830374462925e+01  -1.0712311382115560e+00  -5.0622216266940661e+01  -7.1446366693819002e+01  -4.9552605628192453e+01  8.7692549883384032e+01  -3.3372411649420506e+01  6.6253045422729322e+00  -6.1924804308301191e+01  9.7848617356402045e+01  -2.7373673029861816e+01  -2.3378019598959597e+01  -2.4193295428010305e+01  -6.7625718511036141e+01  5.9098706816292832e+01  -5.1753316728855957e+01  6.7854866151636291e+00  3.1760118099387649e+00  -6.9153123075206381e+01  -2.6087802453053357e+01  -4.1291505073706325e+01  3.1921428417806925e+02  -3.5796921462205518e+01  -6.5107446188842431e+01  -5.8237936858517621e+01  -2.6769112342934076e+01  -6.1030184115999091e+01  -7.1148134206076733e+01  8.7284241243113776e+00  1.0692444189560534e+02  -3.1489293166085046e+00  8.3514326686931151e-01  -6.2556950203718401e+01  -6.4520541332521745e+01  -5.6139076783268536e+01  -6.8816228063981669e+01  1.1785556296802113e+02  -2.0140982056429461e+01  -5.2479924297732133e+01  -4.5543338127820356e+01  -6.7079271441090057e+01  7.1077551211789512e+01  1.8107820677710734e+01  3.8954979690171427e+01  -4.1408385801995898e+01  1.6183777080157387e+01  6.9244979916710667e+00  7.6545247192410145e+01  -7.2610747571913606e+01  -1.9501318921355029e+01  -7.1432582214133348e+01  -4.1451490778907107e+01  -1.3874008660489860e+01  -7.0412132833160967e+01  -5.6467976403271386e+01  -4.0487654166567381e+01  -1.9388636417575590e+01  -3.3525098838157561e+01  -6.9719249375958441e+01  -6.3782358597022402e+00  -2.2583538500281637e+01  -4.7655023831164307e+01  -4.9233006684308933e+01  9.6475951389014458e+00  -6.2950455632104962e+01  -6.0686198578842841e+01  -3.8792709413955009e+01  -5.