<?xml version="1.0"?>
<VTKFile type="UnstructuredGrid"  version="0.1"  >
<UnstructuredGrid>
<Piece  NumberOfPoints="2401" NumberOfCells="4608">
<Points>
<DataArray  type="Float64"  NumberOfComponents="3"  format="ascii">0 0 0  0.001070538380698371 0 0  0.004277569313095364 0 0  0.009607359798386061 0 0  0.01703708685546806 0 0  0.02653493525245065 0 0  0.03806023374436157 0 0  0.05156362923366253 0 0  0.06698729810778931 0 0  0.08426519384873815 0 0  0.1033233298543955 0 0  0.1240800962605269 0 0  0.1464466094067445 0 0  0.1703270924499866 0 0  0.1956192854956637 0 0  0.2222148834902257 0 0  0.2500000000000299 0 0  0.2788556548905322 0 0  0.308658283817491 0 0  0.339280267348458 0 0  0.3705904774487813 0 0  0.4024548389919803 0 0  0.4347369038900211 0 0  0.467298435384978 0 0  0.5000000000000517 0 0  0.5327015646151253 0 0  0.5652630961100813 0 0  0.5975451610081212 0 0  0.6294095225513188 0 0  0.6607197326516399 0 0  0.6913417161826045 0 0  0.7211443451095605 0 0  0.7500000000000597 0 0  0.7777851165098603 0 0  0.8043807145044185 0 0  0.829672907550091 0 0  0.8535533905933287 0 0  0.8759199037395413 0 0  0.8966766701456674 0 0  0.9157348061513193 0 0  0.9330127018922625 0 0  0.9484363707663832 0 0  0.961939766255678 0 0  0.9734650647475827 0 0  0.9829629131445586 0 0  0.9903926402016341 0 0  0.9957224306869181 0 0  0.9989294616193084 0 0  1 0 0  0 0.02083333333333333 0  0.001070538380698371 0.02083333333333333 0  0.004277569313095364 0.02083333333333333 0  0.009607359798386061 0.02083333333333333 0  0.01703708685546806 0.02083333333333333 0  0.02653493525245065 0.02083333333333333 0  0.03806023374436157 0.02083333333333333 0  0.05156362923366253 0.02083333333333333 0  0.06698729810778931 0.02083333333333333 0  0.08426519384873815 0.02083333333333333 0  0.1033233298543955 0.02083333333333333 0  0.1240800962605269 0.02083333333333333 0  0.1464466094067445 0.02083333333333333 0  0.1703270924499866 0.02083333333333333 0  0.1956192854956637 0.02083333333333333 0  0.2222148834902257 0.02083333333333333 0  0.2500000000000299 0.02083333333333333 0  0.2788556548905322 0.02083333333333333 0  0.308658283817491 0.02083333333333333 0  0.339280267348458 0.02083333333333333 0  0.3705904774487813 0.02083333333333333 0  0.4024548389919803 0.02083333333333333 0  0.4347369038900211 0.02083333333333333 0  0.467298435384978 0.02083333333333333 0  0.5000000000000517 0.02083333333333333 0  0.5327015646151253 0.02083333333333333 0  0.5652630961100813 0.02083333333333333 0  0.5975451610081212 0.02083333333333333 0  0.6294095225513188 0.02083333333333333 0  0.6607197326516399 0.02083333333333333 0  0.6913417161826045 0.02083333333333333 0  0.7211443451095605 0.02083333333333333 0  0.7500000000000597 0.02083333333333333 0  0.7777851165098603 0.02083333333333333 0  0.8043807145044185 0.02083333333333333 0  0.829672907550091 0.02083333333333333 0  0.8535533905933287 0.02083333333333333 0  0.8759199037395413 0.02083333333333333 0  0.8966766701456674 0.02083333333333333 0  0.9157348061513193 0.02083333333333333 0  0.9330127018922625 0.02083333333333333 0  0.9484363707663832 0.02083333333333333 0  0.961939766255678 0.02083333333333333 0  0.9734650647475827 0.02083333333333333 0  0.9829629131445586 0.02083333333333333 0  0.9903926402016341 0.02083333333333333 0  0.9957224306869181 0.02083333333333333 0  0.9989294616193084 0.02083333333333333 0  1 0.02083333333333333 0  0 0.04166666666666666 0  0.001070538380698371 0.04166666666666666 0  0.004277569313095364 0.04166666666666666 0  0.009607359798386061 0.04166666666666666 0  0.01703708685546806 0.04166666666666666 0  0.02653493525245065 0.04166666666666666 0  0.03806023374436157 0.04166666666666666 0  0.05156362923366253 0.04166666666666666 0  0.06698729810778931 0.04166666666666666 0  0.08426519384873815 0.04166666666666666 0  0.1033233298543955 0.04166666666666666 0  0.1240800962605269 0.04166666666666666 0  0.1464466094067445 0.04166666666666666 0  0.1703270924499866 0.04166666666666666 0  0.1956192854956637 0.04166666666666666 0  0.2222148834902257 0.04166666666666666 0  0.2500000000000299 0.04166666666666666 0  0.2788556548905322 0.04166666666666666 0  0.308658283817491 0.04166666666666666 0  0.339280267348458 0.04166666666666666 0  0.3705904774487813 0.04166666666666666 0  0.4024548389919803 0.04166666666666666 0  0.4347369038900211 0.04166666666666666 0  0.467298435384978 0.04166666666666666 0  0.5000000000000517 0.04166666666666666 0  0.5327015646151253 0.04166666666666666 0  0.5652630961100813 0.04166666666666666 0  0.5975451610081212 0.04166666666666666 0  0.6294095225513188 0.04166666666666666 0  0.6607197326516399 0.04166666666666666 0  0.6913417161826045 0.04166666666666666 0  0.7211443451095605 0.04166666666666666 0  0.7500000000000597 0.04166666666666666 0  0.7777851165098603 0.04166666666666666 0  0.8043807145044185 0.04166666666666666 0  0.829672907550091 0.04166666666666666 0  0.8535533905933287 0.04166666666666666 0  0.8759199037395413 0.04166666666666666 0  0.8966766701456674 0.04166666666666666 0  0.9157348061513193 0.04166666666666666 0  0.9330127018922625 0.04166666666666666 0  0.9484363707663832 0.04166666666666666 0  0.961939766255678 0.04166666666666666 0  0.9734650647475827 0.04166666666666666 0  0.9829629131445586 0.04166666666666666 0  0.9903926402016341 0.04166666666666666 0  0.9957224306869181 0.04166666666666666 0  0.9989294616193084 0.04166666666666666 0  1 0.04166666666666666 0  0 0.0625 0  0.001070538380698371 0.0625 0  0.004277569313095364 0.0625 0  0.009607359798386061 0.0625 0  0.01703708685546806 0.0625 0  0.02653493525245065 0.0625 0  0.03806023374436157 0.0625 0  0.05156362923366253 0.0625 0  0.06698729810778931 0.0625 0  0.08426519384873815 0.0625 0  0.1033233298543955 0.0625 0  0.1240800962605269 0.0625 0  0.1464466094067445 0.0625 0  0.1703270924499866 0.0625 0  0.1956192854956637 0.0625 0  0.2222148834902257 0.0625 0  0.2500000000000299 0.0625 0  0.2788556548905322 0.0625 0  0.308658283817491 0.0625 0  0.339280267348458 0.0625 0  0.3705904774487813 0.0625 0  0.4024548389919803 0.0625 0  0.4347369038900211 0.0625 0  0.467298435384978 0.0625 0  0.5000000000000517 0.0625 0  0.5327015646151253 0.0625 0  0.5652630961100813 0.0625 0  0.5975451610081212 0.0625 0  0.6294095225513188 0.0625 0  0.6607197326516399 0.0625 0  0.6913417161826045 0.0625 0  0.7211443451095605 0.0625 0  0.7500000000000597 0.0625 0  0.7777851165098603 0.0625 0  0.8043807145044185 0.0625 0  0.829672907550091 0.0625 0  0.8535533905933287 0.0625 0  0.8759199037395413 0.0625 0  0.8966766701456674 0.0625 0  0.9157348061513193 0.0625 0  0.9330127018922625 0.0625 0  0.9484363707663832 0.0625 0  0.961939766255678 0.0625 0  0.9734650647475827 0.0625 0  0.9829629131445586 0.0625 0  0.9903926402016341 0.0625 0  0.9957224306869181 0.0625 0  0.9989294616193084 0.0625 0  1 0.0625 0  0 0.08333333333333333 0  0.001070538380698371 0.08333333333333333 0  0.004277569313095364 0.08333333333333333 0  0.009607359798386061 0.08333333333333333 0  0.01703708685546806 0.08333333333333333 0  0.02653493525245065 0.08333333333333333 0  0.03806023374436157 0.08333333333333333 0  0.05156362923366253 0.08333333333333333 0  0.06698729810778931 0.08333333333333333 0  0.08426519384873815 0.08333333333333333 0  0.1033233298543955 0.08333333333333333 0  0.1240800962605269 0.08333333333333333 0  0.1464466094067445 0.08333333333333333 0  0.1703270924499866 0.08333333333333333 0  0.1956192854956637 0.08333333333333333 0  0.2222148834902257 0.08333333333333333 0  0.2500000000000299 0.08333333333333333 0  0.2788556548905322 0.08333333333333333 0  0.308658283817491 0.08333333333333333 0  0.339280267348458 0.08333333333333333 0  0.3705904774487813 0.08333333333333333 0  0.4024548389919803 0.08333333333333333 0  0.4347369038900211 0.08333333333333333 0  0.467298435384978 0.08333333333333333 0  0.5000000000000517 0.08333333333333333 0  0.5327015646151253 0.08333333333333333 0  0.5652630961100813 0.08333333333333333 0  0.5975451610081212 0.08333333333333333 0  0.6294095225513188 0.08333333333333333 0  0.6607197326516399 0.08333333333333333 0  0.6913417161826045 0.08333333333333333 0  0.7211443451095605 0.08333333333333333 0  0.7500000000000597 0.08333333333333333 0  0.7777851165098603 0.08333333333333333 0  0.8043807145044185 0.08333333333333333 0  0.829672907550091 0.08333333333333333 0  0.8535533905933287 0.08333333333333333 0  0.8759199037395413 0.08333333333333333 0  0.8966766701456674 0.08333333333333333 0  0.9157348061513193 0.08333333333333333 0  0.9330127018922625 0.08333333333333333 0  0.9484363707663832 0.08333333333333333 0  0.961939766255678 0.08333333333333333 0  0.9734650647475827 0.08333333333333333 0  0.9829629131445586 0.08333333333333333 0  0.9903926402016341 0.08333333333333333 0  0.9957224306869181 0.08333333333333333 0  0.9989294616193084 0.08333333333333333 0  1 0.08333333333333333 0  0 0.1041666666666667 0  0.001070538380698371 0.1041666666666667 0  0.004277569313095364 0.1041666666666667 0  0.009607359798386061 0.1041666666666667 0  0.01703708685546806 0.1041666666666667 0  0.02653493525245065 0.1041666666666667 0  0.03806023374436157 0.1041666666666667 0  0.05156362923366253 0.1041666666666667 0  0.06698729810778931 0.1041666666666667 0  0.08426519384873815 0.1041666666666667 0  0.1033233298543955 0.1041666666666667 0  0.1240800962605269 0.1041666666666667 0  0.1464466094067445 0.1041666666666667 0  0.1703270924499866 0.1041666666666667 0  0.1956192854956637 0.1041666666666667 0  0.2222148834902257 0.1041666666666667 0  0.2500000000000299 0.1041666666666667 0  0.2788556548905322 0.1041666666666667 0  0.308658283817491 0.1041666666666667 0  0.339280267348458 0.1041666666666667 0  0.3705904774487813 0.1041666666666667 0  0.4024548389919803 0.1041666666666667 0  0.4347369038900211 0.1041666666666667 0  0.467298435384978 0.1041666666666667 0  0.5000000000000517 0.1041666666666667 0  0.5327015646151253 0.1041666666666667 0  0.5652630961100813 0.1041666666666667 0  0.5975451610081212 0.1041666666666667 0  0.62
[...]
<PointData  Scalars="f_1662856"> 
<DataArray  type="Float64"  Name="f_1662856"  format="ascii">1.2917717303197503e+02  1.2917756926573966e+02  1.2917601385136743e+02  1.2916804922622737e+02  1.2913081900650417e+02  1.2901953886281802e+02  1.2879460186680097e+02  1.2837792429681056e+02  1.2775114739102018e+02  1.2682805082593885e+02  1.2555785186459242e+02  1.2383880086362575e+02  1.2200968413695725e+02  1.2002751445677930e+02  1.1725525965956155e+02  1.1382824463017816e+02  1.1175236134895088e+02  1.0978693061294202e+02  1.0604146817244192e+02  1.0199292931324787e+02  9.9680054594300870e+01  9.7231125003303802e+01  9.2963678163513848e+01  8.8820868827114253e+01  8.5563664729846778e+01  8.2819349014196035e+01  8.0790749362223636e+01  7.8346268205136440e+01  7.5313392521741022e+01  7.2883992014593588e+01  7.1139332374766852e+01  6.8662907306371906e+01  6.6213223770788630e+01  6.4339042508777126e+01  6.2877741882020715e+01  6.1421928465593027e+01  6.0039900747857750e+01  5.9148404454838811e+01  5.8323554331011422e+01  5.7659549535102066e+01  5.7134013199226068e+01  5.6796733510319001e+01  5.6582478417987382e+01  5.6461884257818113e+01  5.6389661547442742e+01  5.6347820279687426e+01  5.6332497168115800e+01  5.6332278666896329e+01  5.6336203390885380e+01  1.2942090266195223e+02  1.2941880482147440e+02  1.2942919497044650e+02  1.2945532934762659e+02  1.2946769125116251e+02  1.2940441612061517e+02  1.2917092263608686e+02  1.2863037775912565e+02  1.2796660382217388e+02  1.2727369678725773e+02  1.2570055834666212e+02  1.2403477145902281e+02  1.2220713010148285e+02  1.2040623124813591e+02  1.1769788221096032e+02  1.1379309705660197e+02  1.1172492235618535e+02  1.0988634720013232e+02  1.0649931413238211e+02  1.0194059705735305e+02  9.9623791626604529e+01  9.7155183805129070e+01  9.3041684495849083e+01  8.9125590036852444e+01  8.5337773636788015e+01  8.2773184360149060e+01  8.0898343406999942e+01  7.8564283358277336e+01  7.4941607493314521e+01  7.2753821346854437e+01  7.1226998722436278e+01  6.8819812990649510e+01  6.6230218346766733e+01  6.4105705354134358e+01  6.2699575477840519e+01  6.1591411425520299e+01  6.0122714609551657e+01  5.9259033706019679e+01  5.8399725604307449e+01  5.7606208861651680e+01  5.7144840472581897e+01  5.6791286843497339e+01  5.6611284259700199e+01  5.6521284782592076e+01  5.6477595918104853e+01  5.6479762217550359e+01  5.6509350188964248e+01  5.6528627732416332e+01  5.6530674609814469e+01  1.2986918287531941e+02  1.2986902497595128e+02  1.2988400141135827e+02  1.2993310564145580e+02  1.3001987985333619e+02  1.3009373076811261e+02  1.3005739730297466e+02  1.2981329178921280e+02  1.2834539411715147e+02  1.2753651233020427e+02  1.2626493250939394e+02  1.2456060422571665e+02  1.2251421608408938e+02  1.2088101366835727e+02  1.1879846116611226e+02  1.1403545252846192e+02  1.1171415356807998e+02  1.0989105201781859e+02  1.0734090310333882e+02  1.0205012287751013e+02  9.9556097013764571e+01  9.6955055830533567e+01  9.2994080937933646e+01  8.9955523172498459e+01  8.4877404274312227e+01  8.2702772329263723e+01  8.1094827239535533e+01  7.9069018666134809e+01  7.4349558530019451e+01  7.2587937779414887e+01  7.1306426324870500e+01  6.9458768956784397e+01  6.6253018498441875e+01  6.3815294486748776e+01  6.2628131136772680e+01  6.1679960771539690e+01  6.0332299195944962e+01  5.9547660149641032e+01  5.8683271774753777e+01  5.7712998070901527e+01  5.7361804768680422e+01  5.7058249801873608e+01  5.6893227732112521e+01  5.6931267046901517e+01  5.7047116827752035e+01  5.7178308185899091e+01  5.7247784728968469e+01  5.7267088031081514e+01  5.7266951376526066e+01  1.2994925812764373e+02  1.2994962758077261e+02  1.2995690345706643e+02  1.2998468899893297e+02  1.3004357674302022e+02  1.3010962006587005e+02  1.3013765549430781e+02  1.2995535375077475e+02  1.2921276582522245e+02  1.2744777781455782e+02  1.2624670388038626e+02  1.2490839621778576e+02  1.2279166334293140e+02  1.2113206170970322e+02  1.1911307924963056e+02  1.1451985049119223e+02  1.1173544056345614e+02  1.0986004577752756e+02  1.0753211187544974e+02  1.0241657144763171e+02  9.9483675597775886e+01  9.6577764716589400e+01  9.3035245980801022e+01  9.0471324856810810e+01  8.4639497836967237e+01  8.2688450182490101e+01  8.1190577679181985e+01  7.9322330001063065e+01  7.4061788664100135e+01  7.2545666863411526e+01  7.1354110847290499e+01  6.9799380262406700e+01  6.6396384243936694e+01  6.3848706111455250e+01  6.2705648594617209e+01  6.1808761082778972e+01  6.0608546797503223e+01  5.9901994226489521e+01  5.9100558413705095e+01  5.8076786657905345e+01  5.7901044147178283e+01  5.7908293882462338e+01  5.8038220084703930e+01  5.8209409355212614e+01  5.8293889179651934e+01  5.8322888377932195e+01  5.8333187216082273e+01  5.8343368140273157e+01  5.8341580489577119e+01  1.2985830625848072e+02  1.2985915235263479e+02  1.2986827720249366e+02  1.2990021953324606e+02  1.2996305969105109e+02  1.3003828274548752e+02  1.3009730932354199e+02  1.2998644080384136e+02  1.2951092151736745e+02  1.2739199109417113e+02  1.2621271273267718e+02  1.2505293446600774e+02  1.2302101920212959e+02  1.2122084532126853e+02  1.1888520579079611e+02  1.1514715667117086e+02  1.1187152871568503e+02  1.0972035345331527e+02  1.0729036288919909e+02  1.0292544325329263e+02  9.9235652570001363e+01  9.6036230247205864e+01  9.3216966477204394e+01  9.0933710203247273e+01  8.4685525232134381e+01  8.2711394172451364e+01  8.1198249441462451e+01  7.9389797531432237e+01  7.4010984420394223e+01  7.2541093438346877e+01  7.1392432235280396e+01  6.9960326368692066e+01  6.6460696608530000e+01  6.4313273039636343e+01  6.2904651699662296e+01  6.2026093876543563e+01  6.0999400434921633e+01  6.0358234409493207e+01  5.9645994198152614e+01  5.8962838256963892e+01  5.8883786177017072e+01  5.8877751798827383e+01  5.9016458180470707e+01  5.9186216462976589e+01  5.9298629894063197e+01  5.9378812108875444e+01  5.9421064101960262e+01  5.9434111880979998e+01  5.9434402286054429e+01  1.2958775907113412e+02  1.2958746005903154e+02  1.2959397743348751e+02  1.2962043956905615e+02  1.2967361931641389e+02  1.2974847861683622e+02  1.2981516849688131e+02  1.2973949571752703e+02  1.2943593984405894e+02  1.2731671008597229e+02  1.2619724861973690e+02  1.2494877003968298e+02  1.2300568800385454e+02  1.2083609528273597e+02  1.1842592989562917e+02  1.1529097449096595e+02  1.1187206972959540e+02  1.0924742748461226e+02  1.0680319462998240e+02  1.0300472634132662e+02  9.8690407332822360e+01  9.5719323995928050e+01  9.3484743727690145e+01  9.1251231952476488e+01  8.5035228148303332e+01  8.2781533842916659e+01  8.1151509329345643e+01  7.9261675580311447e+01  7.4184467969708919e+01  7.2587450745818515e+01  7.1441309355239284e+01  7.0050350802382042e+01  6.6472097677342461e+01  6.5077136612961809e+01  6.3412371750657378e+01  6.2368077870250339e+01  6.1496712405351111e+01  6.1047671472274693e+01  6.0814303894194822e+01  6.0586858554273256e+01  6.0260583088537565e+01  6.0112591696982868e+01  6.0049641177131001e+01  6.0116247291882665e+01  6.0250342693948355e+01  6.0332887149265872e+01  6.0371380668380084e+01  6.0379119830713542e+01  6.0378623784740732e+01  1.2926166875501775e+02  1.2926192707257138e+02  1.2926252660305917e+02  1.2927650311141403e+02  1.2931142840288103e+02  1.2937014098540305e+02  1.2937220142300262e+02  1.2919075765923779e+02  1.2884427487717778e+02  1.2718532275276391e+02  1.2586787148371049e+02  1.2415766471767888e+02  1.2228253852523638e+02  1.1991976436110332e+02  1.1787308850864365e+02  1.1541318440687601e+02  1.1113775956846240e+02  1.0846063662524496e+02  1.0632553348584845e+02  1.0331313066638087e+02  9.8178054166923275e+01  9.5647018583034736e+01  9.3665992705443472e+01  9.1314783339794374e+01  8.5735750669828917e+01  8.2930649595913408e+01  8.1026420875808370e+01  7.8928726184065894e+01  7.4672270291929067e+01  7.2687907121048184e+01  7.1510477746501479e+01  7.0131441075641149e+01  6.6692170939882217e+01  6.5517742140254953e+01  6.4295113165270251e+01  6.2984620805454860e+01  6.2295315226399637e+01  6.2062030725702492e+01  6.2027442351083685e+01  6.2072038783815486e+01  6.2026907237441741e+01  6.1807576406211055e+01  6.1702212007366391e+01  6.1622199194389694e+01  6.1631921064188376e+01  6.1749695585663702e+01  6.1853970946637773e+01  6.1896428878092102e+01  6.1897229920175548e+01  1.2880283293910210e+02  1.2880185757894705e+02  1.2882259075696382e+02  1.2884085839905947e+02  1.2884664804021287e+02  1.2881703935575317e+02  1.2862435455766609e+02  1.2825330707375275e+02  1.2777178126894214e+02  1.2662646768715319e+02  1.2493804359364991e+02  1.2296131483647112e+02  1.2137779541424518e+02  1.1914609841099839e+02  1.1738161499053686e+02  1.1532851088438392e+02  1.1022704972493958e+02  1.0785778377544462e+02  1.0599206936164995e+02  1.0357174751317984e+02  9.7874418409516394e+01  9.5647549240870305e+01  9.3731527191893221e+01  9.1191772105776124e+01  8.6549870974747790e+01  8.3050572985258583e+01  8.0791256056400314e+01  7.8649506996261366e+01  7.5596135277597057e+01  7.2859330055031023e+01  7.1632086539277950e+01  7.0254206564103782e+01  6.7253659643151892e+01  6.5985052257370015e+01  6.4984895359091610e+01  6.3960244039442593e+01  6.3333854732290078e+01  6.3045541114717778e+01  6.3069333431997748e+01  6.3134181515249026e+01  6.3232560263990244e+01  6.3407411471018015e+01  6.3621088590739063e+01  6.3902199881971839e+01  6.4099600560941511e+01  6.4115521464901093e+01  6.4052542236315446e+01  6.4016589798287328e+01  6.4008025797289562e+01  1.2680277476667175e+02  1.2680548307024738e+02  1.2681432226830049e+02  1.2684658823708190e+02  1.2691582020201999e+02  1.2705203342204801e+02  1.2719103594538731e+02  1.2700702874017257e+02  1.2654009643620748e+02  1.2559900751732769e+02  1.2389136590782348e+02  1.2191732338378003e+02  1.2055091898773769e+02  1.1844169635132151e+02  1.1679596459101221e+02  1.1492844752383844e+02  1.0952073771036555e+02  1.0734983243891033e+02  1.0561876060420353e+02  1.0353991726116968e+02  9.7701700799559958e+01  9.5660146886125261e+01  9.3713489281555653e+01  9.0875519124973209e+01  8.6829359717451197e+01  8.2829359039948486e+01  8.0652212603965708e+01  7.8872205386118651e+01  7.6678308665228997e+01  7.3142396997796965e+01  7.1889480184514667e+01  7.0558730580277270e+01  6.8333068445417084e+01  6.6689071280505985e+01  6.5721641227468140e+01  6.4858591000788863e+01  6.4545081999751773e+01  6.4534831471340922e+01  6.4699284563473185e+01  6.4857832080899385e+01  6.5061475824421848e+01  6.5281323076754248e+01  6.5482670978368617e+01  6.5642171765737075e+01  6.5766163754837663e+01  6.5853488341780263e+01  6.5937524652862521e+01  6.5990786217206818e+01  6.6004979377404794e+01  1.2572401402597772e+02  1.2572665375606140e+02  1.2572334663614674e+02  1.2570931926589218e+02  1.2568425917171993e+02  1.2564560081048181e+02  1.2564465931644429e+02  1.2570404785584567e+02  1.2534839001216896e+02  1.2439611010605238e+02  1.2274118984004804e+02  1.2089260782066744e+02  1.1961385371723659e+02  1.1764065526245246e+02  1.1606880286642701e+02  1.1426456549334030e+02  1.0890313619595732e+02  1.0681839483710868e+02  1.0516932952276957e+02  1.0325038330836455e+02  9.7553978343697750e+01  9.5637885919300103e+01  9.3567227722757067e+01  9.0273180049891195e+01  8.7014459487719492e+01  8.2568180573356557e+01  8.0679914394011632e+01  7.9249444409774867e+01  7.7421818337111972e+01  7.3506777958493586e+01  7.2218208323237135e+01  7.0989064034648067e+01  6.9273267809186493e+01  6.7877784167231212e+01  6.6851804039175832e+01  6.6398231061800033e+01  6.6168561812884761e+01  6.6105057370630163e+01  6.6146283740175591e+01  6.6302474631841761e+01  6.6527089191565963e+01  6.6774223835701861e+01  6.7015491149674205e+01  6.7210352114076741e+01  6.7333305031004514e+01  6.7440249776039266e+01  6.7544695545864840e+01  6.7605873492903299e+01  6.7600535786429816e+01  1.2476817575486555e+02  1.2476313256586558e+02  1.2475228203918456e+02  1.2472091070456649e+02  1.2464864805556175e+02  1.2451599571673350e+02  1.2429922462864862e+02  1.2397789188653205e+02  1.2355543848673574e+02  1.2268415535590194e+02  1.2130282287038075e+02  1.1974548384883231e+02  1.1855732657770142e+02  1.1670077022730607e+02  1.1518367333074178e+02  1.1340689500198501e+02  1.0826236064235326e+02  1.0623298676018763e+02  1.0463234321611509e+02  1.0276948728564015e+02  9.7310982136456829e+01  9.5471897591781627e+01  9.3263921649192667e+01  8.9745100932470436e+01  8.7302406485139443e+01  8.2450789015703549e+01  8.0824948167942608e+01  7.9550980034120229e+01  7.7953246077723819e+01  7.3955020285532740e+01  7.2573651211826672e+01  7.1420046429512112e+01  7.0107062163756368e+01  6.9128200010504926e+01  6.8411351585859109e+01  6.8168696465537892e+01  6.8010279522077923e+01  6.7981372612046414e+01  6.8033976857394435e+01  6.8176215168936693e+01  6.8418078879506183e+01  6.8713328136977623e+01  6.9007334921569964e+01  6.9271679316243336e+01  6.9481078075488412e+01  6.9606769585323946e+01  6.9649652330442507e+01  6.9632114178357128e+01  6.9623481423927899e+01  1.2316954348312873e+02  1.2317851833518796e+02  1.2317155894777326e+02  1.2312375258376501e+02  1.2300043261198549e+02  1.2277994616990658e+02  1.2245727261426892e+02  1.2202060875559773e+02  1.2140396728043960e+02  1.2057650196297077e+02  1.1959904039064597e+02  1.1854265851933759e+02  1.1741421746427972e+02  1.1560351333601938e+02  1.1413609692292802e+02  1.1239117986422048e+02  1.0754088130123526e+02  1.0556760719333589e+02  1.0399609186563573e+02  1.0214525663432890e+02  9.6936956001135130e+01  9.5110948527796452e+01  9.2961096165284076e+01  8.9485556607605062e+01  8.7377349154315226e+01  8.2553181584331583e+01  8.1034645358307941e+01  7.9822367868945108e+01  7.8352046713124821e+01  7.4671710577521210e+01  7.3023098839247567e+01  7.1925361402368537e+01  7.0849131515843183e+01  7.0128051951129578e+01  6.9484716589445625e+01  6.9327454610927660e+01  6.9264470684592553e+01  6.9243326252524341e+01  6.9272445605308434e+01  6.9374157763142847e+01  6.9592555136766933e+01  6.9897997564008676e+01  7.0228994604303665e+01  7.0586350309488182e+01  7.0940870833738714e+01  7.1256662966466507e+01  7.1463138724660411e+01  7.1501405840422947e+01  7.1497219992954285e+01  1.2199363729651853e+02  1.2198412211718932e+02  1.2195756170679078e+02  1.2187594661889324e+02  1.2170585076769129e+02  1.2143587472477627e+02  1.2106676724927816e+02  1.2057856694359353e+02  1.1992361111038386e+02  1.1909146824882527e+02  1.1815812049727384e+02  1.1714569963051377e+02  1.1594143842323830e+02  1.1430014975174109e+02  1.1291626219361142e+02  1.1120332015119087e+02  1.0671525584337660e+02  1.0480890749139429e+02  1.0325857269773225e+02  1.0141153478377424e+02  9.6462504292490863e+01  9.4620877466803520e+01  9.2710732679909341e+01  8.9422395545542614e+01  8.7179569874664494e+01  8.2878230551192175e+01  8.1316843691131041e+01  8.0088598717408047e+01  7.8669378943929516e+01  7.5833499672172834e+01  7.3710903369436494e+01  7.2694644853271413e+01  7.1695207334631846e+01  7.1213529903153841e+01  7.1036085477699316e+01  7.1033530614477471e+01  7.1077189205065011e+01  7.1148802320181119e+01  7.1235310503823072e+01  7.1334698424470076e+01  7.1339022884275394e+01  7.1236427757867290e+01  7.1498266789009094e+01  7.2097790373983770e+01  7.2814372383684798e+01  7.3419165383477321e+01  7.3707168764289861e+01  7.3752116283790670e+01  7.3753814804475809e+01  1.1984049698299209e+02  1.1984821303864726e+02  1.1982975770505260e+02  1.1975315570922380e+02  1.1958091097929808e+02  1.1930015082935434e+02  1.1891577306448099e+02  1.1841611226644031e+02  1.1777768950568655e+02  1.1698416061201523e+02  1.1605153502989469e+02  1.1500085325977777e+02  1.1383442136467137e+02  1.1263776444259621e+02  1.1144349675855652e+02  1.0975108624776892e+02  1.0578397513462630e+02  1.0395421823778803e+02  1.0242161640112015e+02  1.0059111322111164e+02  9.5930344967913541e+01  9.4104822597130550e+01  9.2340401921968379e+01  8.9655406639573272e+01  8.6779204787036576e+01  8.3414579472867459e+01  8.1701613420614564e+01  8.0372803440818302e+01  7.9001394994776078e+01  7.6914073306185827e+01  7.4785335376194055e+01  7.3794915343527364e+01  7.3238115676651645e+01  7.2738217797888908e+01  7.2513436889454610e+01  7.2504898585667036e+01  7.2569606515705104e+01  7.2675657715481421e+01  7.2856165803445180e+01  7.3154911198364914e+01  7.3595097657331024e+01  7.4170283413531720e+01  7.5174659704307459e+01  7.5934414901396508e+01  7.6179910695685052e+01  7.6177934694954317e+01  7.6076177560648802e+01  7.5993807116715828e+01  7.5976969153652448e+01  1.1821378533261530e+02  1.1820840591849235e+02  1.1818874491007311e+02  1.1810314116413623e+02  1.1791008480382342e+02  1.1760632407357211e+02  1.1720599172679724e+02  1.1670370962433344e+02  1.1608278496775100e+02  1.1532337673629758e+02  1.1441748303675688e+02  1.1337106174245191e+02  1.1217507228035912e+02  1.1084390944493113e+02  1.0956736299273355e+02  1.0788462063344308e+02  1.0475862339771525e+02  1.0300644310330401e+02  1.0148789906266589e+02  9.9694113382220792e+01  9.5363502978255212e+01  9.3590389739768341e+01  9.1936454712317570e+01  8.9771584590901952e+01  8.6338435095356829e+01  8.4115614530482901e+01  8.2369496888895469e+01  8.0728218470220497e+01  7.9427374958138742e+01  7.8280764249601944e+01  7.6526569990694014e+01  7.5308505586747373e+01  7.4897762286374899e+01  7.4610617783179165e+01  7.4374002171990057e+01  7.4335730428057204e+01  7.4451933937741870e+01  7.4609856287362220e+01  7.4853508027670884e+01  7.5259707625695185e+01  7.5768306085586730e+01  7.6306832528069862e+01  7.6901208264496830e+01  7.7314057234085482e+01  7.7516405774375855e+01  7.7658649822578838e+01  7.7739005833825871e+01  7.7778769426473687e+01  7.7803041309760872e+01  1.1602271898376307e+02  1.1603293377425312e+02  1.1602401437012070e+02  1.1595319139965578e+02  1.1576432926574373e+02  1.1542282576961243e+02  1.1496111147335198e+02  1.1440685036796428e+02  1.1375903995334737e+02  1.1299979258475499e+02  1.1211152590650555e+02  1.1108611078719629e+02  1.0991734294998146e+02  1.0863491414750698e+02  1.0728414213207610e+02  1.0567760147507757e+02  1.0360651751042339e+02  1.0195849435857016e+02  1.0045386969824845e+02  9.8710478902889477e+01  9.4761219928852100e+01  9.3070083261282846e+01  9.1514739818112602e+01  8.9623514581116083e+01  8.6145387035974736e+01  8.4396266456606369e+01  8.2972262962975549e+01  8.1651065816044635e+01  7.9746261317195689e+01  7.9047699418963475e+01  7.7850168538548871e+01  7.6647306081412538e+01  7.6165678519265995e+01  7.5945720755702851e+01  7.5769177045654899e+01  7.5646036868960636e+01  7.5687608728708199e+01  7.5865168125504908e+01  7.6142467146091931e+01  7.6521100637997506e+01  7.6996072457149779e+01  7.7523512189808145e+01  7.8085946997745523e+01  7.8655740892593272e+01  7.8975326795011284e+01  7.9172993627612243e+01  7.9277235244156770e+01  7.9307661213265561e+01  7.9291324596069657e+01  1.1457021300714797e+02  1.1456228646387601e+02  1.1453381232976112e+02  1.1446983936528642e+02  1.1430813927063436e+02  1.1392944025255973e+02  1.1340220609345039e+02  1.1279826841687778e+02  1.1211497461739421e+02  1.1132929628762167e+02  1.1042495752049912e+02  1.0940081563661700e+02  1.0825828207547801e+02  1.0700220854370372e+02  1.0562561923021073e+02  1.0403086954311738e+02  1.0228103588281324e+02  1.0075465468297419e+02  9.9297143772219187e+01  9.7590843620687821e+01  9.4111669106032878e+01  9.2523949512622565e+01  9.1048133849625657e+01  8.9339592159543002e+01  8.6052925988935300e+01  8.4564331062193261e+01  8.3341150955949828e+01  8.2218824352664768e+01  8.0377113730470384e+01  7.9705294881017977e+01  7.8960603861229544e+01  7.8113275908853723e+01  7.7891621754941895e+01  7.7758605156372070e+01  7.7681330671306640e+01  7.7648898388172299e+01  7.7719884424636334e+01  7.7944052385318955e+01  7.8264212313115252e+01  7.8486014547018783e+01  7.8567923265892958e+01  7.8916325803889052e+01  7.9726634511105871e+01  8.0734319992552201e+01  8.1399715195525729e+01  8.1694309