<?xml version="1.0"?>
<VTKFile type="UnstructuredGrid"  version="0.1"  >
<UnstructuredGrid>
<Piece  NumberOfPoints="2401" NumberOfCells="4608">
<Points>
<DataArray  type="Float64"  NumberOfComponents="3"  format="ascii">0 0 0  0.001070538380698371 0 0  0.004277569313095364 0 0  0.009607359798386061 0 0  0.01703708685546806 0 0  0.02653493525245065 0 0  0.03806023374436157 0 0  0.05156362923366253 0 0  0.06698729810778931 0 0  0.08426519384873815 0 0  0.1033233298543955 0 0  0.1240800962605269 0 0  0.1464466094067445 0 0  0.1703270924499866 0 0  0.1956192854956637 0 0  0.2222148834902257 0 0  0.2500000000000299 0 0  0.2788556548905322 0 0  0.308658283817491 0 0  0.339280267348458 0 0  0.3705904774487813 0 0  0.4024548389919803 0 0  0.4347369038900211 0 0  0.467298435384978 0 0  0.5000000000000517 0 0  0.5327015646151253 0 0  0.5652630961100813 0 0  0.5975451610081212 0 0  0.6294095225513188 0 0  0.6607197326516399 0 0  0.6913417161826045 0 0  0.7211443451095605 0 0  0.7500000000000597 0 0  0.7777851165098603 0 0  0.8043807145044185 0 0  0.829672907550091 0 0  0.8535533905933287 0 0  0.8759199037395413 0 0  0.8966766701456674 0 0  0.9157348061513193 0 0  0.9330127018922625 0 0  0.9484363707663832 0 0  0.961939766255678 0 0  0.9734650647475827 0 0  0.9829629131445586 0 0  0.9903926402016341 0 0  0.9957224306869181 0 0  0.9989294616193084 0 0  1 0 0  0 0.02083333333333333 0  0.001070538380698371 0.02083333333333333 0  0.004277569313095364 0.02083333333333333 0  0.009607359798386061 0.02083333333333333 0  0.01703708685546806 0.02083333333333333 0  0.02653493525245065 0.02083333333333333 0  0.03806023374436157 0.02083333333333333 0  0.05156362923366253 0.02083333333333333 0  0.06698729810778931 0.02083333333333333 0  0.08426519384873815 0.02083333333333333 0  0.1033233298543955 0.02083333333333333 0  0.1240800962605269 0.02083333333333333 0  0.1464466094067445 0.02083333333333333 0  0.1703270924499866 0.02083333333333333 0  0.1956192854956637 0.02083333333333333 0  0.2222148834902257 0.02083333333333333 0  0.2500000000000299 0.02083333333333333 0  0.2788556548905322 0.02083333333333333 0  0.308658283817491 0.02083333333333333 0  0.339280267348458 0.02083333333333333 0  0.3705904774487813 0.02083333333333333 0  0.4024548389919803 0.02083333333333333 0  0.4347369038900211 0.02083333333333333 0  0.467298435384978 0.02083333333333333 0  0.5000000000000517 0.02083333333333333 0  0.5327015646151253 0.02083333333333333 0  0.5652630961100813 0.02083333333333333 0  0.5975451610081212 0.02083333333333333 0  0.6294095225513188 0.02083333333333333 0  0.6607197326516399 0.02083333333333333 0  0.6913417161826045 0.02083333333333333 0  0.7211443451095605 0.02083333333333333 0  0.7500000000000597 0.02083333333333333 0  0.7777851165098603 0.02083333333333333 0  0.8043807145044185 0.02083333333333333 0  0.829672907550091 0.02083333333333333 0  0.8535533905933287 0.02083333333333333 0  0.8759199037395413 0.02083333333333333 0  0.8966766701456674 0.02083333333333333 0  0.9157348061513193 0.02083333333333333 0  0.9330127018922625 0.02083333333333333 0  0.9484363707663832 0.02083333333333333 0  0.961939766255678 0.02083333333333333 0  0.9734650647475827 0.02083333333333333 0  0.9829629131445586 0.02083333333333333 0  0.9903926402016341 0.02083333333333333 0  0.9957224306869181 0.02083333333333333 0  0.9989294616193084 0.02083333333333333 0  1 0.02083333333333333 0  0 0.04166666666666666 0  0.001070538380698371 0.04166666666666666 0  0.004277569313095364 0.04166666666666666 0  0.009607359798386061 0.04166666666666666 0  0.01703708685546806 0.04166666666666666 0  0.02653493525245065 0.04166666666666666 0  0.03806023374436157 0.04166666666666666 0  0.05156362923366253 0.04166666666666666 0  0.06698729810778931 0.04166666666666666 0  0.08426519384873815 0.04166666666666666 0  0.1033233298543955 0.04166666666666666 0  0.1240800962605269 0.04166666666666666 0  0.1464466094067445 0.04166666666666666 0  0.1703270924499866 0.04166666666666666 0  0.1956192854956637 0.04166666666666666 0  0.2222148834902257 0.04166666666666666 0  0.2500000000000299 0.04166666666666666 0  0.2788556548905322 0.04166666666666666 0  0.308658283817491 0.04166666666666666 0  0.339280267348458 0.04166666666666666 0  0.3705904774487813 0.04166666666666666 0  0.4024548389919803 0.04166666666666666 0  0.4347369038900211 0.04166666666666666 0  0.467298435384978 0.04166666666666666 0  0.5000000000000517 0.04166666666666666 0  0.5327015646151253 0.04166666666666666 0  0.5652630961100813 0.04166666666666666 0  0.5975451610081212 0.04166666666666666 0  0.6294095225513188 0.04166666666666666 0  0.6607197326516399 0.04166666666666666 0  0.6913417161826045 0.04166666666666666 0  0.7211443451095605 0.04166666666666666 0  0.7500000000000597 0.04166666666666666 0  0.7777851165098603 0.04166666666666666 0  0.8043807145044185 0.04166666666666666 0  0.829672907550091 0.04166666666666666 0  0.8535533905933287 0.04166666666666666 0  0.8759199037395413 0.04166666666666666 0  0.8966766701456674 0.04166666666666666 0  0.9157348061513193 0.04166666666666666 0  0.9330127018922625 0.04166666666666666 0  0.9484363707663832 0.04166666666666666 0  0.961939766255678 0.04166666666666666 0  0.9734650647475827 0.04166666666666666 0  0.9829629131445586 0.04166666666666666 0  0.9903926402016341 0.04166666666666666 0  0.9957224306869181 0.04166666666666666 0  0.9989294616193084 0.04166666666666666 0  1 0.04166666666666666 0  0 0.0625 0  0.001070538380698371 0.0625 0  0.004277569313095364 0.0625 0  0.009607359798386061 0.0625 0  0.01703708685546806 0.0625 0  0.02653493525245065 0.0625 0  0.03806023374436157 0.0625 0  0.05156362923366253 0.0625 0  0.06698729810778931 0.0625 0  0.08426519384873815 0.0625 0  0.1033233298543955 0.0625 0  0.1240800962605269 0.0625 0  0.1464466094067445 0.0625 0  0.1703270924499866 0.0625 0  0.1956192854956637 0.0625 0  0.2222148834902257 0.0625 0  0.2500000000000299 0.0625 0  0.2788556548905322 0.0625 0  0.308658283817491 0.0625 0  0.339280267348458 0.0625 0  0.3705904774487813 0.0625 0  0.4024548389919803 0.0625 0  0.4347369038900211 0.0625 0  0.467298435384978 0.0625 0  0.5000000000000517 0.0625 0  0.5327015646151253 0.0625 0  0.5652630961100813 0.0625 0  0.5975451610081212 0.0625 0  0.6294095225513188 0.0625 0  0.6607197326516399 0.0625 0  0.6913417161826045 0.0625 0  0.7211443451095605 0.0625 0  0.7500000000000597 0.0625 0  0.7777851165098603 0.0625 0  0.8043807145044185 0.0625 0  0.829672907550091 0.0625 0  0.8535533905933287 0.0625 0  0.8759199037395413 0.0625 0  0.8966766701456674 0.0625 0  0.9157348061513193 0.0625 0  0.9330127018922625 0.0625 0  0.9484363707663832 0.0625 0  0.961939766255678 0.0625 0  0.9734650647475827 0.0625 0  0.9829629131445586 0.0625 0  0.9903926402016341 0.0625 0  0.9957224306869181 0.0625 0  0.9989294616193084 0.0625 0  1 0.0625 0  0 0.08333333333333333 0  0.001070538380698371 0.08333333333333333 0  0.004277569313095364 0.08333333333333333 0  0.009607359798386061 0.08333333333333333 0  0.01703708685546806 0.08333333333333333 0  0.02653493525245065 0.08333333333333333 0  0.03806023374436157 0.08333333333333333 0  0.05156362923366253 0.08333333333333333 0  0.06698729810778931 0.08333333333333333 0  0.08426519384873815 0.08333333333333333 0  0.1033233298543955 0.08333333333333333 0  0.1240800962605269 0.08333333333333333 0  0.1464466094067445 0.08333333333333333 0  0.1703270924499866 0.08333333333333333 0  0.1956192854956637 0.08333333333333333 0  0.2222148834902257 0.08333333333333333 0  0.2500000000000299 0.08333333333333333 0  0.2788556548905322 0.08333333333333333 0  0.308658283817491 0.08333333333333333 0  0.339280267348458 0.08333333333333333 0  0.3705904774487813 0.08333333333333333 0  0.4024548389919803 0.08333333333333333 0  0.4347369038900211 0.08333333333333333 0  0.467298435384978 0.08333333333333333 0  0.5000000000000517 0.08333333333333333 0  0.5327015646151253 0.08333333333333333 0  0.5652630961100813 0.08333333333333333 0  0.5975451610081212 0.08333333333333333 0  0.6294095225513188 0.08333333333333333 0  0.6607197326516399 0.08333333333333333 0  0.6913417161826045 0.08333333333333333 0  0.7211443451095605 0.08333333333333333 0  0.7500000000000597 0.08333333333333333 0  0.7777851165098603 0.08333333333333333 0  0.8043807145044185 0.08333333333333333 0  0.829672907550091 0.08333333333333333 0  0.8535533905933287 0.08333333333333333 0  0.8759199037395413 0.08333333333333333 0  0.8966766701456674 0.08333333333333333 0  0.9157348061513193 0.08333333333333333 0  0.9330127018922625 0.08333333333333333 0  0.9484363707663832 0.08333333333333333 0  0.961939766255678 0.08333333333333333 0  0.9734650647475827 0.08333333333333333 0  0.9829629131445586 0.08333333333333333 0  0.9903926402016341 0.08333333333333333 0  0.9957224306869181 0.08333333333333333 0  0.9989294616193084 0.08333333333333333 0  1 0.08333333333333333 0  0 0.1041666666666667 0  0.001070538380698371 0.1041666666666667 0  0.004277569313095364 0.1041666666666667 0  0.009607359798386061 0.1041666666666667 0  0.01703708685546806 0.1041666666666667 0  0.02653493525245065 0.1041666666666667 0  0.03806023374436157 0.1041666666666667 0  0.05156362923366253 0.1041666666666667 0  0.06698729810778931 0.1041666666666667 0  0.08426519384873815 0.1041666666666667 0  0.1033233298543955 0.1041666666666667 0  0.1240800962605269 0.1041666666666667 0  0.1464466094067445 0.1041666666666667 0  0.1703270924499866 0.1041666666666667 0  0.1956192854956637 0.1041666666666667 0  0.2222148834902257 0.1041666666666667 0  0.2500000000000299 0.1041666666666667 0  0.2788556548905322 0.1041666666666667 0  0.308658283817491 0.1041666666666667 0  0.339280267348458 0.1041666666666667 0  0.3705904774487813 0.1041666666666667 0  0.4024548389919803 0.1041666666666667 0  0.4347369038900211 0.1041666666666667 0  0.467298435384978 0.1041666666666667 0  0.5000000000000517 0.1041666666666667 0  0.5327015646151253 0.1041666666666667 0  0.5652630961100813 0.1041666666666667 0  0.5975451610081212 0.1041666666666667 0  0.62
[...]
<PointData  Scalars="f_1662826"> 
<DataArray  type="Float64"  Name="f_1662826"  format="ascii">5.3795754091630215e+01  5.3792918497390758e+01  5.3808104272448780e+01  5.3859861517931485e+01  5.3971837813371373e+01  5.4191545403543429e+01  5.4538008295941886e+01  5.5067921844490925e+01  5.5744535979159679e+01  5.6647022330696636e+01  5.7786117375541025e+01  5.9239479806574664e+01  6.0712029436762592e+01  6.2291374390810127e+01  6.4556460442598407e+01  6.7130595007755645e+01  6.8604819079051623e+01  7.0123633903787351e+01  7.3249851042541962e+01  7.6381689591539455e+01  7.8106663809413362e+01  8.0170063657936538e+01  8.3756503601171019e+01  8.7207020349577149e+01  8.9848641646478598e+01  9.2089503478882847e+01  9.3893744080512633e+01  9.6307075905289551e+01  9.9239794193108622e+01  1.0152808705554843e+02  1.0325947661911290e+02  1.0581915852932111e+02  1.0833903292748461e+02  1.1029300477303833e+02  1.1183773829358830e+02  1.1325648642159732e+02  1.1458836044850716e+02  1.1540474309769409e+02  1.1606204524428072e+02  1.1653297971263667e+02  1.1685295818293466e+02  1.1701711061305880e+02  1.1707376731782878e+02  1.1705983627318861e+02  1.1701142461287759e+02  1.1695597781659136e+02  1.1691746976310426e+02  1.1691005633332659e+02  1.1691286568045193e+02  5.3610972242213840e+01  5.3615796217880522e+01  5.3622695293853397e+01  5.3650724338919211e+01  5.3736156338317727e+01  5.3932919707844995e+01  5.4297860131415774e+01  5.4952618014223518e+01  5.5660319653761057e+01  5.6336006901402520e+01  5.7703123401298072e+01  5.9080030635842391e+01  6.0505653954924107e+01  6.1903025982797445e+01  6.4124971819915103e+01  6.7049197390390503e+01  6.8494038710960254e+01  6.9861555899882688e+01  7.2697660149944838e+01  7.6282423896375349e+01  7.7997779035638388e+01  8.0004304874662481e+01  8.3343579438098800e+01  8.6745131619979489e+01  8.9842323543059877e+01  9.1918466084773698e+01  9.3620636519033127e+01  9.5988236870076008e+01  9.9489356438531047e+01  1.0151417274003906e+02  1.0304256523266083e+02  1.0559738805397495e+02  1.0830045562257544e+02  1.1058334814166760e+02  1.1210674640179818e+02  1.1325275164541144e+02  1.1471988961858763e+02  1.1552818257328987e+02  1.1620747229325990e+02  1.1681358765716558e+02  1.1714085510120262e+02  1.1727869520701020e+02  1.1732542392831229e+02  1.1729344768582899e+02  1.1720647855684027e+02  1.1709661817950665e+02  1.1702425665697857e+02  1.1700675914365087e+02  1.1700493879526820e+02  5.3535250940025833e+01  5.3532530475802723e+01  5.3528341059344399e+01  5.3524448774109494e+01  5.3534045349852605e+01  5.3604783645174408e+01  5.3798055890053398e+01  5.4188149554378178e+01  5.5532334176767243e+01  5.6222148837322585e+01  5.7285194733930879e+01  5.8626701592584865e+01  6.0158551897538302e+01  6.1359113158519072e+01  6.2974530568882415e+01  6.6593982407090877e+01  6.8232688006577987e+01  6.9527836099814763e+01  7.1525075541664989e+01  7.5793628935216844e+01  7.7676991980622830e+01  7.9663365435371531e+01  8.2745318502328317e+01  8.5380933101551591e+01  8.9804619735429469e+01  9.1583612277228738e+01  9.3066462414559624e+01  9.5101949832034535e+01  9.9770349184522459e+01  1.0141544707927409e+02  1.0273588590081121e+02  1.0472055321355995e+02  1.0824485433194720e+02  1.1097233149293729e+02  1.1231086614307057e+02  1.1333693370092152e+02  1.1479001710810546e+02  1.1561642961898859e+02  1.1642039100599267e+02  1.1728780604317797e+02  1.1757613757119776e+02  1.1771789078813927e+02  1.1768561686065664e+02  1.1754145677512770e+02  1.1735521668382081e+02  1.1718672435600494e+02  1.1709619791100917e+02  1.1706857371022105e+02  1.1706673020765763e+02  5.3697452509255804e+01  5.3697505655293980e+01  5.3696433730801353e+01  5.3693544135209230e+01  5.3694402867220795e+01  5.3725282165688320e+01  5.3827453874828436e+01  5.4136761018104977e+01  5.4926614440330489e+01  5.6358697217286490e+01  5.7278226327556332e+01  5.8287058349133105e+01  5.9831490986841160e+01  6.1020043180657240e+01  6.2493426414090024e+01  6.5921389862837401e+01  6.7908735588480155e+01  6.9211910711041355e+01  7.0933366594617766e+01  7.5012986890277233e+01  7.7264799131360192e+01  7.9345970332224567e+01  8.2000553885954332e+01  8.4297546541597328e+01  8.9575180792755262e+01  9.1236983870149700e+01  9.2632948232535995e+01  9.4469698128783563e+01  9.9743726047099216e+01  1.0120718590320266e+02  1.0247005662855169e+02  1.0416091377459632e+02  1.0805634499492302e+02  1.1100811473605665e+02  1.1233248823765869e+02  1.1335145798064842e+02  1.1474993723263030e+02  1.1557713635913800e+02  1.1646128065536428e+02  1.1749015420086535e+02  1.1761275176354836e+02  1.1756083089322618e+02  1.1734458867109305e+02  1.1711961668011747e+02  1.1694551661096158e+02  1.1682826183127770e+02  1.1677427426128905e+02  1.1675943757351553e+02  1.1676264776747192e+02  5.3913834148271185e+01  5.3913363722043776e+01  5.3909142820592258e+01  5.3899795147349401e+01  5.3891486023885300e+01  5.3905144281600407e+01  5.3965740688826472e+01  5.4186743037217994e+01  5.4762916296433396e+01  5.6416383880933587e+01  5.7258083743576854e+01  5.8099040370553688e+01  5.9544385486817838e+01  6.0783162488328728e+01  6.2375125515939516e+01  6.5019962671991124e+01  6.7409171283186879e+01  6.8895256960331054e+01  7.0575026358890909e+01  7.3872161116716839e+01  7.6704934806638789e+01  7.8949815524988367e+01  8.1125545731541138e+01  8.3225876597596013e+01  8.9088668587289874e+01  9.0848081358193994e+01  9.2267807696983709e+01  9.4001585280794828e+01  9.9457295731157870e+01  1.0094489810090934e+02  1.0219075142629644e+02  1.0378000143988757e+02  1.0792792632686159e+02  1.1051893783238282e+02  1.1220075635299220e+02  1.1326233209946307e+02  1.1457152202065889e+02  1.1540688957852328e+02  1.1631987467216895e+02  1.1717947535245963e+02  1.1715591670725713e+02  1.1704210078825668e+02  1.1678023273787738e+02  1.1656559661478792e+02  1.1642589744109340e+02  1.1633149392285173e+02  1.1627822491844134e+02  1.1625912720075490e+02  1.1625701462195110e+02  5.4319310334361020e+01  5.4318934545032384e+01  5.4317655805929029e+01  5.4312614487654798e+01  5.4305202650025869e+01  5.4302704691513370e+01  5.4332061498281959e+01  5.4487253100675012e+01  5.4879277891287970e+01  5.6449211348411978e+01  5.7206684709415853e+01  5.8070630816783762e+01  5.9387355206682017e+01  6.0772813014186994e+01  6.2297637046516947e+01  6.4493233862053032e+01  6.6859156069179875e+01  6.8557898200379327e+01  7.0135640242276338e+01  7.3029729539229876e+01  7.6260578538558107e+01  7.8476396583042998e+01  8.0319798189325951e+01  8.2339567647601740e+01  8.8284810296011486e+01  9.0384284586121083e+01  9.1927433022485204e+01  9.3677507194419405e+01  9.8896872104362572e+01  1.0060911012237200e+02  1.0188201919216910e+02  1.0346421154567975e+02  1.0785104072919944e+02  1.0962768279255687e+02  1.1168725122746504e+02  1.1302344154398730e+02  1.1425360448139274e+02  1.1498444328836348e+02  1.1551686317160502e+02  1.1593032950870344e+02  1.1617391779420919e+02  1.1622131362413666e+02  1.1613507962467830e+02  1.1597721423350774e+02  1.1583405711728565e+02  1.1574850349676980e+02  1.1570796830611523e+02  1.1569948313983090e+02  1.1570189790705106e+02  5.4689674777721514e+01  5.4690850280951942e+01  5.4693368016969750e+01  5.4692278371550124e+01  5.4687941754797407e+01  5.4687924513285132e+01  5.4762706451714692e+01  5.4979495644193221e+01  5.5317015855967554e+01  5.6491926477945448e+01  5.7350955463084553e+01  5.8451936372297915e+01  5.9642630498149089e+01  6.1078567708430526e+01  6.2314360802948741e+01  6.3945716671307302e+01  6.6732905629368688e+01  6.8398297194706871e+01  6.9757096373687105e+01  7.2005728621916305e+01  7.6028389310468228e+01  7.8010503000086629e+01  7.9671889460242582e+01  8.1734737261524685e+01  8.7060225748433297e+01  8.9779398112779973e+01  9.1551643504922083e+01  9.3405051983240128e+01  9.7902812658465322e+01  1.0018651111133008e+02  1.0152646281282867e+02  1.0313632338810559e+02  1.0751009119916215e+02  1.0908531757148704e+02  1.1067968186847659e+02  1.1248098534451843e+02  1.1360708592259742e+02  1.1418596954808235e+02  1.1450154009422938e+02  1.1460058845179135e+02  1.1470762412262089e+02  1.1492437478791734e+02  1.1498489971327520e+02  1.1495214265229872e+02  1.1489501438576323e+02  1.1478695145796492e+02  1.1470360416478168e+02  1.1467106325406702e+02  1.1466892383845048e+02  5.5176939933719929e+01  5.5175485470114936e+01  5.5159480675328957e+01  5.5155742734354007e+01  5.5177665645770333e+01  5.5248251238629763e+01  5.5451960848366596e+01  5.5755649901870122e+01  5.6107384589477533e+01  5.6858653887168792e+01  5.7902958017065949e+01  5.9117067347791398e+01  6.0081091092825069e+01  6.1400036032397288e+01  6.2430475372531120e+01  6.3698063776595447e+01  6.6919981941480344e+01  6.8381752040546374e+01  6.9572313298095295e+01  7.1288241670617367e+01  7.5739118266726649e+01  7.7519516273807710e+01  7.9126734915968470e+01  8.1286313996685536e+01  8.5520265213369740e+01  8.8858289266705199e+01  9.0849460041224660e+01  9.2805742469851225e+01  9.6260365095434750e+01  9.9615768823298012e+01  1.0105957494533774e+02  1.0272648988188203e+02  1.0669639867028823e+02  1.0848653779245396e+02  1.0988816094631811e+02  1.1150086928911959e+02  1.1262063596006929e+02  1.1332103008176071e+02  1.1355485841057865e+02  1.1364497522800082e+02  1.1366025499480169e+02  1.1358078878364675e+02  1.1344351681963839e+02  1.1322572184483430e+02  1.1307559309680335e+02  1.1306851739022724e+02  1.1312305231423314e+02  1.1315199747654167e+02  1.1315833315580254e+02  5.7038265266318973e+01  5.7037381523308269e+01  5.7031228770227109e+01  5.7004816514221496e+01  5.6948014644788742e+01  5.6835457780343120e+01  5.6696101947446195e+01  5.6771952668747488e+01  5.7042830512345823e+01  5.7587225346985718e+01  5.8580017083691068e+01  5.9730451441100875e+01  6.0528420990596750e+01  6.1732113543690375e+01  6.2660095314072251e+01  6.3748459946258805e+01  6.7067438030216522e+01  6.8409171982365706e+01  6.9495857943724673e+01  7.0893565693198411e+01  7.5344580735498766e+01  7.6991937287733535e+01  7.8615467651379205e+01  8.0865862536419939e+01  8.4316644124663682e+01  8.7929542061142939e+01  8.9862263566558241e+01  9.1742035614819258e+01  9.4332846333904712e+01  9.8797638225238217e+01  1.0036324057629616e+02  1.0205630426379221e+02  1.0513378714795961e+02  1.0755739590868619e+02  1.0904173600115672e+02  1.1057120511799407e+02  1.1139749134346182e+02  1.1186867257647354e+02  1.1196467541391424e+02  1.1199815092735633e+02  1.1195264410888439e+02  1.1186986896576693e+02  1.1179448766805120e+02  1.1173608206466076e+02  1.1166770323247174e+02  1.1161762442018099e+02  1.1156572913787680e+02  1.1153121836903179e+02  1.1152279906005069e+02  5.7967601568214278e+01  5.7965670992906432e+01  5.7965805967026867e+01  5.7970376427239508e+01  5.7978143765690113e+01  5.7990105454947049e+01  5.7961684247188231e+01  5.7843056281924611e+01  5.7976570981521171e+01  5.8481569642634838e+01  5.9367313518600369e+01  6.0372733201785714e+01  6.1075823174800469e+01  6.2152117746513049e+01  6.3002407414253526e+01  6.4006315581576388e+01  6.7203153207970388e+01  6.8477261708592508e+01  6.9488500559407044e+01  7.0726462865315753e+01  7.4908326664619509e+01  7.6432322058714306e+01  7.8085020571004378e+01  8.0547324367457975e+01  8.3221891653000029e+01  8.7388849549532083e+01  8.9209632573138293e+01  9.0778527569354580e+01  9.2893138470615000e+01  9.7914898048367519e+01  9.9642148152697558e+01  1.0128457730957108e+02  1.0377538136106153e+02  1.0597461072637581e+02  1.0776054518065311e+02  1.0887051370640324e+02  1.0965929764394474e+02  1.1018607489308569e+02  1.1045440521499285e+02  1.1053789642724674e+02  1.1051625636700255e+02  1.1044887898951745e+02  1.1037467273523194e+02  1.1033387092986359e+02  1.1032122439867467e+02  1.1027970820908985e+02  1.1021609047495762e+02  1.1016893125307826e+02  1.1017015099056145e+02  5.8794614570009124e+01  5.8796681896706751e+01  5.8803047789358537e+01  5.8820685799480493e+01  5.8860528898853111e+01  5.8934198922819903e+01  5.9055515446566233e+01  5.9228816462917926e+01  5.9376825276982103e+01  5.9747928324807269e+01  6.0395846883815835e+01  6.1129388551302455e+01  6.1728631833563803e+01  6.2680610873951736e+01  6.3462367062754147e+01  6.4405321222735608e+01  6.7374161351174280e+01  6.8588375070925295e+01  6.9542668239723483e+01  7.0697235017489461e+01  7.4522126625867813e+01  7.5914425621304716e+01  7.7573578992748011e+01  8.0234316359963600e+01  8.2262267155226027e+01  8.6926928856896140e+01  8.8560315200329498e+01  8.9964568590668520e+01  9.1780276097812148e+01  9.7004244147922009e+01  9.8955701111757449e+01  1.0056249816764281e+02  1.0261667365597822e+02  1.0439412576332037e+02  1.0597458472698136e+02  1.0686250394912187e+02  1.0758082789534430e+02  1.0809050102182862e+02  1.0843326880346787e+02  1.0861636260635838e+02  1.0866275061860327e+02  1.0861524774093442e+02  1.0854159562715651e+02  1.0848199345216342e+02  1.0845041200975025e+02  1.0843741173861685e+02  1.0844993674821208e+02  1.0847571877477809e+02  1.0848305026080303e+02  6.0109862847842741e+01  6.0106079939933288e+01  6.0110917692736564e+01  6.0136335193373100e+01  6.0200823548863553e+01  6.0314824939047568e+01  6.0478168603687344e+01  6.0690312119111333e+01  6.0964107408579480e+01  6.1279343790624289e+01  6.1635802772749443e+01  6.1999588834704554e+01  6.2461341787384775e+01  6.3329253394490273e+01  6.4044202388228797e+01  6.4920582740490460e+01  6.7609605665386951e+01  6.8755440959269521e+01  6.9660380337042582e+01  7.0758650455459062e+01  7.4235173777638536e+01  7.5531772671715061e+01  7.7068997223406214e+01  7.9833410677949260e+01  8.1617718115455489e+01  8.6257896918817025e+01  8.7856090429906374e+01  8.9199934891797739e+01  9.0858854149032638e+01  9.5717993349423978e+01  9.8142671415808934e+01  9.9762712939194998e+01  1.0163736806174056e+02  1.0314527376838689e+02  1.0474682517709653e+02  1.0554899826695991e+02  1.0616428259469721e+02  1.0669724501635136e+02  1.0710826041583506e+02  1.0738921526390421e+02  1.0753434117728459e+02  1.0751581444748012e+02  1.0742502922934402e+02  1.0729062339923625e+02  1.0715018747243710e+02  1.0701731385618308e+02  1.0691435301830847e+02  1.0689424991592188e+02  1.0689608807841537e+02  6.1110760222562774e+01  6.1115587815842211e+01  6.1127531975725773e+01  6.1162600873852618e+01  6.1235559742289034e+01  6.1353973645614907e+01  6.1517063991316000e+01  6.1731249333401010e+01  6.2010307356897378e+01  6.2332072888259226e+01  6.2660708738031808e+01  6.3014224880054897e+01  6.3449525355945255e+01  6.4137305447904069e+01  6.4758410881888651e+01  6.5561425823569493e+01  6.7925681859249664e+01  6.8989647136575215e+01  6.9844655454710008e+01  7.0888182279087104e+01  7.4041119925980212e+01  7.5281573087670068e+01  7.6530572171354677e+01  7.9276855343465982e+01  8.1202946163686974e+01  8.5317913898190341e+01  8.7041867952681940e+01  8.8410864956014308e+01  9.0015697946713956e+01  9.3707546343810478e+01  9.6964604187003388e+01  9.8614063928007226e+01  1.0053339985624100e+02  1.0185829983104389e+02  1.0293757709849764e+02  1.0358940997194892e+02  1.0409943282165192e+02  1.0454336575428403e+02  1.0493293056715682e+02  1.0526928842188096e+02  1.0570758591111094e+02  1.0621397802840778e+02  1.0632499946165049e+02  1.0606381603195653e+02  1.0562342427877431e+02  1.0523066114306879e+02  1.0504047298821054e+02  1.0500471473690018e+02  1.0500054757012369e+02  6.2917416376006905e+01  6.2914178019572638e+01  6.2917766351989094e+01  6.2931817059164651e+01  6.2970115028740508e+01  6.3046868395132392e+01  6.3168846564939273e+01  6.3341206108673632e+01  6.3567165829533842e+01  6.3842622373744661e+01  6.4156614098982075e+01  6.4513905251923575e+01  6.4913373148690198e+01  6.5257740186306648e+01  6.5662711743848575e+01  6.6385115994949828e+01  6.8333187879245386e+01  6.9299596100885239e+01  7.0099470085929923e+01  7.1075744023150889e+01  7.3910832054917691e+01  7.5094333131896036e+01  7.6192832308381199e+01  7.8290485976461866e+01  8.0757587448125278e+01  8.4018261015987463e+01  8.6005845744030736e+01  8.7522917652343139e+01  8.9089860620366181e+01  9.1789363072682960e+01  9.5227730908686169e+01  9.7096157317465483e+01  9.8536089059435113e+01  1.0003894748789958e+02  1.0118016565632183e+02  1.0186144614931119e+02  1.0236611785861948e+02  1.0279781638516215e+02  1.0313088625032717e+02  1.0331284385402145e+02  1.0333779225528373e+02  1.0326593933556671e+02  1.0307817168872627e+02  1.0272707197065179e+02  1.0267635211022709e+02  1.0276839193463189e+02  1.0289814960553447e+02  1.0298044262920597e+02  1.0299775473095985e+02  6.4295716450785932e+01  6.4296087899848686e+01  6.4295526237047184e+01  6.4309823310138285e+01  6.4349131411926408e+01  6.4416810377321184e+01  6.4517261824087171e+01  6.4656808142049584e+01  6.4838123117686706e+01  6.5063028490296446e+01  6.5333536424201483e+01  6.5659527517665808e+01  6.6054548909131327e+01  6.6503662235812158e+01  6.6884495120365756e+01  6.7500740374781955e+01  6.8851592336260609e+01  6.9693067792487170e+01  7.0428920327889443e+01  7.1319650184829527e+01  7.3821337463148026e+01  7.4934572048830688e+01  7.5942257688572909e+01  7.7436232130005578e+01  8.0212037114360555e+01  8.2245959393357623e+01  8.4320782398446369e+01  8.6461657077096262e+01  8.7978779090487905e+01  8.9483509883330100e+01  9.2581843583294599e+01  9.5109395775048000e+01  9.6517093725843253e+01  9.7767992205519747e+01  9.8940518077120174e+01  9.9740434661641714e+01  1.0021654920409894e+02  1.0062824081105869e+02  1.0096640839846384e+02  1.0114164545272695e+02  1.0117005190974933e+02  1.0116085677019147e+02  1.0126454231860561e+02  1.0135785045809024e+02  1.0132959826104305e+02  1.0128744482915648e+02  1.0126146196350508e+02  1.0124377400732739e+02  1.0122399190050628e+02  6.6101203361582364e+01  6.6095969623358584e+01  6.6088145192716212e+01  6.6079164673011178e+01  6.6085705569993976e+01  6.6143170044348082e+01  6.6252329237011523e+01  6.6395276481458538e+01  6.6563578559207201e+01  6.6756985586920337e+01  6.6981876065005935e+01  6.7252983783832377e+01  6.7589119736287415e+01  6.7978521787237398e+01  6.8403901077003965e+01  6.8906111576115450e+01  6.9555529853839914e+01  7.0180050339611725e+01  7.0840657715869284e+01  7.1627956469363070e+01  7.3764273734666148e+01  7.4787796009120513e+01  7.5703136777183758e+01  7.6901979258154128e+01  7.9579501769418229e+01  8.1210628375137702e+01  8.2764022106373673e+01  8.4373853658981560e+01  8.7127912478768593e+01  8.8289517728931315e+01  9.0609463274070308e+01  9.3383634861706582e+01  9.5026750770219479e+01  9.6190750315214316e+01  9.7280838202766702e+01  9.8226841026096707e+01  9.8831959277967627e+01  9.9258990437965338e+01  9.9609071106293015e+01  9.9895683638253999e+01  9.9995445933850988e+01  9.9979693839326941e+01  9.9937263050909607e+01  1.0000082032078492e+02  1.0000880475694458e+02  9.9956470701610328e+01  9.9912794142613208e+01  9.9897935139838367e+01  9.9909414108649514e+01  6.7325894116411376e+01  6.7334725864154962e+01  6.7343242247908236e+01  6.7341810533544418e+01  6.7326025251032348e+01  6.7353129600895699e+01  6.7453714307314939e+01  6.7599477108324280e+01  6.7770145222658840e+01  6.7962973397465717e+01  6.8180439571842555e+01  6.8427954728481197e+01  6.8718969136920265e+01  6.9066586497058367e+01  6.9480752187969728e+01  6.9971285021244839e+01  7.0438081507831072e+01  7.0823629306810403e+01  7.1347931214763420e+01  7.2025470657657706e+01  7.3738969513550643e+01  7.4652422285030838e+01  7.5484075204908635e+01  7.6478516669467496e+01  7.8966416133149480e+01  8.0405935794747279e+01  8.1722841791632931e+01  8.3067625608837744e+01  8.5921136063041544e+01  8.7337441143702705e+01  8.9080137360554147e+01  9.1608496563790936e+01  9.2986662207482183e+01  9.4058085527773940e+01  9.5011470074907933e+01  9.5856278302139302e+01  9.6513289215878032e+01  9.6969634139240029e+01  9.7310078670927723e+01  9.7776903114463380e+01  9.8429585274330137e+01  9.8755833367814404e+01  9.8574209969200624e+01  9.8183488262155166e+01  9.7958688607091503e+01  9.7846101