<?xml version="1.0"?>
<VTKFile type="UnstructuredGrid"  version="0.1"  >
<UnstructuredGrid>
<Piece  NumberOfPoints="2907" NumberOfCells="5077">
<Points>
<DataArray  type="Float64"  NumberOfComponents="3"  format="ascii">-20 2.5 0  -20 0 0  -1 0 0  -0.9996988186962042 0.02454122852291233 0  -0.9987954562051724 0.04906767432741797 0  -0.9972904566786902 0.07356456359966773 0  -0.9951847266721968 0.09801714032956083 0  -0.99247953459871 0.1224106751992163 0  -0.989176509964781 0.1467304744553618 0  -0.9852776423889412 0.1709618887603012 0  -0.9807852804032304 0.1950903220161286 0  -0.9757021300385285 0.21910124015687 0  -0.970031253194544 0.2429801799032641 0  -0.9637760657954398 0.2667127574748985 0  -0.9569403357322088 0.2902846772544624 0  -0.9495281805930367 0.3136817403988914 0  -0.9415440651830207 0.3368898533922203 0  -0.9329927988347388 0.3598950365349883 0  -0.9238795325112867 0.3826834323650899 0  -0.9142097557035307 0.4052413140049899 0  -0.9039892931234433 0.427555093430282 0  -0.8932243011955152 0.4496113296546069 0  -0.8819212643483549 0.4713967368259979 0  -0.8700869911087113 0.4928981922297841 0  -0.857728610000272 0.5141027441932218 0  -0.8448535652497071 0.5349976198870972 0  -0.8314696123025453 0.5555702330196022 0  -0.8175848131515836 0.5758081914178454 0  -0.8032075314806448 0.5956993044924335 0  -0.7883464276266062 0.6152315905806269 0  -0.773010453362737 0.6343932841636455 0  -0.7572088465064846 0.6531728429537766 0  -0.7409511253549589 0.6715589548470186 0  -0.7242470829514668 0.6895405447370671 0  -0.7071067811865475 0.7071067811865476 0  -0.6895405447370669 0.7242470829514669 0  -0.6715589548470184 0.740951125354959 0  -0.6531728429537765 0.7572088465064847 0  -0.6343932841636454 0.7730104533627371 0  -0.6152315905806267 0.7883464276266063 0  -0.5956993044924334 0.8032075314806449 0  -0.5758081914178453 0.8175848131515837 0  -0.555570233019602 0.8314696123025455 0  -0.534997619887097 0.8448535652497072 0  -0.5141027441932217 0.8577286100002721 0  -0.492898192229784 0.8700869911087115 0  -0.4713967368259977 0.881921264348355 0  -0.4496113296546067 0.8932243011955152 0  -0.4275550934302819 0.9039892931234434 0  -0.4052413140049897 0.9142097557035307 0  -0.3826834323650897 0.9238795325112867 0  -0.3598950365349882 0.9329927988347388 0  -0.3368898533922199 0.9415440651830208 0  -0.3136817403988914 0.9495281805930367 0  -0.2902846772544622 0.9569403357322089 0  -0.2667127574748983 0.9637760657954398 0  -0.2429801799032639 0.970031253194544 0  -0.2191012401568697 0.9757021300385286 0  -0.1950903220161282 0.9807852804032304 0  -0.1709618887603012 0.9852776423889412 0  -0.1467304744553616 0.989176509964781 0  -0.1224106751992162 0.99247953459871 0  -0.09801714032956065 0.9951847266721969 0  -0.07356456359966733 0.9972904566786902 0  -0.04906767432741801 0.9987954562051724 0  -0.02454122852291214 0.9996988186962042 0  6.123233995736766e-17 1 0  0.02454122852291226 0.9996988186962042 0  0.04906767432741813 0.9987954562051724 0  0.07356456359966745 0.9972904566786902 0  0.09801714032956077 0.9951847266721968 0  0.1224106751992163 0.99247953459871 0  0.1467304744553617 0.989176509964781 0  0.1709618887603014 0.9852776423889412 0  0.1950903220161283 0.9807852804032304 0  0.2191012401568698 0.9757021300385286 0  0.242980179903264 0.970031253194544 0  0.2667127574748984 0.9637760657954398 0  0.2902846772544623 0.9569403357322089 0  0.3136817403988916 0.9495281805930367 0  0.3368898533922201 0.9415440651830208 0  0.3598950365349883 0.9329927988347388 0  0.3826834323650898 0.9238795325112867 0  0.4052413140049899 0.9142097557035307 0  0.4275550934302822 0.9039892931234433 0  0.4496113296546066 0.8932243011955153 0  0.4713967368259978 0.8819212643483549 0  0.4928981922297841 0.8700869911087113 0  0.5141027441932217 0.8577286100002721 0  0.5349976198870973 0.844853565249707 0  0.5555702330196023 0.8314696123025452 0  0.5758081914178453 0.8175848131515837 0  0.5956993044924335 0.8032075314806448 0  0.6152315905806268 0.7883464276266062 0  0.6343932841636455 0.773010453362737 0  0.6531728429537768 0.7572088465064845 0  0.6715589548470183 0.7409511253549591 0  0.6895405447370669 0.7242470829514669 0  0.7071067811865476 0.7071067811865475 0  0.724247082951467 0.6895405447370668 0  0.7409511253549591 0.6715589548470183 0  0.7572088465064846 0.6531728429537768 0  0.773010453362737 0.6343932841636455 0  0.7883464276266063 0.6152315905806268 0  0.8032075314806449 0.5956993044924334 0  0.8175848131515837 0.5758081914178453 0  0.8314696123025452 0.5555702330196022 0  0.8448535652497071 0.5349976198870972 0  0.8577286100002721 0.5141027441932217 0  0.8700869911087115 0.492898192229784 0  0.881921264348355 0.4713967368259976 0  0.8932243011955153 0.4496113296546065 0  0.9039892931234433 0.4275550934302821 0  0.9142097557035307 0.4052413140049899 0  0.9238795325112867 0.3826834323650898 0  0.932992798834739 0.3598950365349881 0  0.9415440651830208 0.3368898533922201 0  0.9495281805930367 0.3136817403988915 0  0.9569403357322088 0.2902846772544623 0  0.9637760657954398 0.2667127574748984 0  0.970031253194544 0.2429801799032639 0  0.9757021300385286 0.2191012401568698 0  0.9807852804032304 0.1950903220161282 0  0.9852776423889412 0.1709618887603012 0  0.989176509964781 0.1467304744553617 0  0.99247953459871 0.1224106751992162 0  0.9951847266721969 0.0980171403295606 0  0.9972904566786902 0.07356456359966743 0  0.9987954562051724 0.04906767432741801 0  0.9996988186962042 0.02454122852291229 0  1 0 0  20 0 0  20 2.5 0  0 2.5 0  -10 2.5 0  10 2.5 0  -10.5 0 0  -5 2.5 0  10.5 0 0  5 2.5 0  -5.75 0 0  5.75 0 0  -15.25 0 0  -15 2.5 0  15.25 0 0  15 2.5 0  -17.625 0 0  -17.5 2.5 0  17.5 2.5 0  17.625 0 0  12.5 2.5 0  12.875 0 0  -12.5 2.5 0  -12.875 0 0  -2.5 2.5 0  2.5 2.5 0  -8.125 0 0  -7.5 2.5 0  8.125 0 0  7.5 2.5 0  -3.375 0 0  3.375 0 0  -18.75 2.5 0  20 1.25 0  16.4375 1.19375 0  -16.25 2.5 0  13.75 2.5 0  -14.0625 0 0  -11.6875 0 0  11.6875 0 0  8.75 2.5 0  -8.75 2.5 0  6.9375 0 0  6.25 2.5 0  -6.25 2.5 0  -9.3125 0 0  -6.9375 0 0  9.3125 0 0  11.25 2.5 0  -11.25 2.5 0  3.75 2.5 0  4.5625 0 0  -4.5625 0 0  -3.75 2.5 0  -13.75 2.5 0  14.0625 0 0  -16.4375 0 0  -20 1.25 0  -18.8125 0 0  18.75 2.5 0  -18.21875 1.2359375 0  18.125 1.278125 0  -15.84375 1.2125 0  -14.375 1.30859375 0  14.65625 1.203125 0  2.1875 0 0  -2.1875 0 0  13.125 1.315625 0  3.125 1.315625 0  -3.125 1.315625 0  -12.28125 1.1890625 0  -5.15625 1.184375 0  11.09375 1.184375 0  5.625 1.325 0  -10.97262068800044 1.220713793599868 0  9.375 1.32734375 0  -6.875 1.32734375 0  -9.67626828410207 1.24449497187193 0  8.061334925608099 1.312208731402025 0  -8.188665074391901 1.312208731402025 0  -1.25 2.5 0  1.25 2.5 0  4.37465139623265 1.41327350462657 0  16.25 2.5 0  6.84375467392576 1.430449641528851 0  -1.846573640185365 1.334702047669377 0  1.846573640185365 1.334702047669377 0  -17.02955351149946 1.396129584721571 0  16.4375 0 0  18.8125 0 0  -13.31314667860176 1.511193493282891 0  -4.122005747945582 0.961844908681634 0  12.12799425205442 0.961844908681634 0  15.54930641305724 1.660405980876393 0  19.0578783583929 0.9559530595267438 0  8.71875 0.6864560603786576 0  -7.53125 0.6864560603786576 0  -0.6257799091428727 1.819008129832856 0  0.6257799091428734 1.819008129832855 0  6.291331569065717 0.7194652423646902 0  -19.11204717950418 0.9044926794710327 0  -4.488713231834613 1.772186102355655 0  11.76128676816539 1.772186102355655 0  -19.28185607205105 1.781856072051052 0  19.30868080343342 1.808680803433421 0  9.90625 0.6371857066656857 0  -6.34375 0.6371857066656857 0  3.796921710049233 0.7617406159238448 0  7.392020585015773 0.7480839107774819 0  -8.910372062800235 0.7929553447587234 0  10.2506781820361 1.451853913138859 0  -5.999321817963904 1.451853913138859 0  4.957643119381741 0.7716423099297361 0  17.29984375 0.8640625 0  15.41193625859067 0.8279888354083842 0  -13.72251704931534 0.7728002662082776 0  16.875 2.5 0  17.12178336313261 1.690954734835967 0  -11.64001625260176 1.74572103154608 0  2.477726735235857 0.7850262278604345 0  13.46875 0 0  13.765625 0.7802887470308788 0  -2.78125 0 0  -2.477726735235857 0.7850262278604346 0  -10.33383379274331 1.744431431923121 0  13.91957519050334 1.653419259628842 0  -15.08147780274903 0.8341506893754731 0  -15.14066649024666 1.671962869821843 0  -8.950686484882164 1.678622661163363 0  -17.55392917606836 0.794731598412167 0  -16.80247533599675 0.6688259240674158 0  -12.94289066923278 0.7766744225472476 0  -9.90625 0 0  -10.31601468672093 0.7730817089126454 0  -18.21875 0 0  -12.28125 0 0  -17.68515668569534 1.768907656575843 0  18.21875 0 0  10.85059123027421 1.880344717307101 0  -5.399408769725794 1.880344717307101 0  -3.738137326223278 1.749164834446819 0  -3.125 2.5 0  12.46235897590077 1.601301060091387 0  -11.09375 0 0  -11.61661448001209 0.7781698802173554 0  -15.625 2.5 0  -1.764022608759088 0.6027229563180789 0  1.59375 0 0  -8.125 2.5 0  8.125 2.5 0  8.713468311289519 1.727645658498745 0  9.375 2.5 0  -7.536531688710481 1.727645658498745 0  -6.875 2.5 0  14.375 2.5 0  17.78381794101733 1.874391370085592 0  18.59891476281433 1.80649740393129 0  -18.58835555265984 1.824268641341969 0  1.806126122135773 0.6510673837470153 0  -16.875 2.5 0  -16.36681393636619 1.755298393865037 0  -16.13072438662071 0.6014017614895231 0  -13.92460230791385 1.83195710210235 0  -14.40198779087891 0.6105385965811564 0  20 0.625 0  19.40625 0 0  14.6875 1.888836596385542 0  14.65625 0 0  12.78248197181444 0.6991460920542635 0  -3.467518028185561 0.6991460920542635 0  13.125 2.5 0  2.491957142932539 1.738660596534321 0  3.125 2.5 0  1.875 2.5 0  3.718973573227002 1.75927763286174 0  -2.491957142932539 1.738660596534321 0  -1.875 2.5 0  -9.375 2.5 0  6.2001972846108 1.772767401802766 0  5.625 2.5 0  5.027483518098582 1.760895488350309 0  5.625981449127788 0.6566963631252629 0  -12.30101114679273 1.859484693920165 0  9.742489932362783 1.884363450023167 0  -6.507510067637216 1.884363450023166 0  1.13492303295015 1.283502262067074
[...]
<PointData  Scalars="f_2032910"> 
<DataArray  type="Float64"  Name="f_2032910"  format="ascii">9.9995557691963188e-01  1.0000303789041178e+00  -1.4515004213664737e-04  -7.6651879740876212e-05  -8.9412910794496650e-06  -1.8702220715608700e-04  -9.3387208053425297e-05  8.1168005464048691e-06  -3.3855912008648147e-05  -4.9641252714609460e-05  1.3561106773444184e-03  -3.6436849041996074e-05  -1.5097693027665008e-04  -9.0295402460451754e-05  -8.7637868893694206e-05  -2.8715173800407607e-05  -3.4923772655677440e-05  -3.1955895878724695e-05  -1.2132790547598712e-05  -1.8397425055183686e-06  1.2434959983740387e-06  5.0815159315541362e-07  -3.1525042323573723e-07  3.6127456582922789e-06  -2.9758541331455187e-06  1.5433874454440524e-06  1.3264817678604084e-06  -4.5411557589592636e-06  -1.1679388003207188e-05  1.6043897826421972e-05  7.8189442197920861e-06  6.1617658517376489e-07  9.3067997983376528e-07  2.3912145288458880e-05  9.9359168500731057e-06  8.6411837539991764e-06  1.7234681702772765e-05  4.6728620853366975e-06  4.0170949602769065e-06  2.1555393212831361e-05  2.3654280649214503e-06  -2.7607394720765977e-06  9.2449344869110637e-06  3.3848275188375097e-05  7.4447305922609416e-05  6.3538954868830802e-05  7.6823644149087581e-04  6.8145484452605790e-05  2.9440497351423337e-05  2.0518550697500343e-06  3.6858161835508677e-06  2.4755297010995147e-05  3.3095747632923721e-06  2.1136970997451215e-05  4.4067418911672315e-05  1.4478511090036401e-04  1.0145357197461244e-04  4.3012131287694963e-05  9.8609934242083032e-05  6.9631063508211613e-05  1.6403368622007337e-05  1.9579465856768302e-05  7.4381764687692689e-05  1.5331763912337056e-04  1.4305779212142605e-04  7.6913665100202452e-05  1.4728779418124796e-04  8.8506760376457331e-06  6.2780952740303173e-05  -3.2225743943609296e-05  -8.2927885758655212e-05  -2.9992231393859945e-04  4.5716565524103894e-04  -1.1793773392102241e-05  1.2378994382280108e-05  1.4549797272481228e-04  7.3984920247581034e-05  2.0768170430676432e-08  8.4822136530123861e-04  1.0597932856251098e-04  1.2331170381387811e-04  4.0759026927166132e-05  1.0454903844062242e-05  6.3756410981136441e-06  -1.1425741941826798e-05  8.2596630802509626e-05  5.8540664703026174e-05  2.5104499350305011e-05  -1.9764689316050222e-06  7.1760281548896860e-06  3.1903279289698901e-05  1.2706637426856688e-05  7.6072045953624840e-06  2.3895573934537781e-05  7.6773861321179857e-05  6.2236276000692511e-06  4.8789480163183621e-06  7.4469817743648886e-05  -1.6152760733093639e-06  4.3881702358943129e-06  2.5765967588288417e-05  3.5087207978966377e-05  -1.3480625203280007e-05  1.8959140920518838e-05  5.9293282022813892e-06  5.6439193250474753e-06  2.1793829291635121e-05  1.4441028781735212e-05  6.3622162570927584e-06  -1.3478314662944771e-05  1.2872418276665109e-05  2.2528787344565913e-05  7.9982993072137985e-05  6.7471718473288627e-05  3.0750203597711250e-05  1.1737799247418389e-04  3.5749189174749975e-05  2.1755878669380468e-05  3.1894992839730876e-05  3.8295671964694059e-06  -7.5369902672408205e-05  -3.7273879212607091e-05  -9.6775026575738444e-06  -2.3390128153488565e-05  4.2451781616996605e-06  -6.2335666861418617e-05  -1.5230278437354999e-04  -2.2162707805576610e-04  -6.8607703909643073e-05  -2.9028275477443646e-05  -4.7564421274794265e-05  9.9999714067211365e-01  1.0000000114030552e+00  1.0684553758721056e+00  9.9999993808108645e-01  9.9999971589708192e-01  9.9999850798000045e-01  1.0000816577729492e+00  1.0000138673315160e+00  1.0004807999720136e+00  9.9610596304537680e-01  9.9083149336108245e-01  9.9965364035797732e-01  9.9999805552009247e-01  9.9999718276158533e-01  1.0000000237703031e+00  9.9753044587506712e-01  1.0001062971788821e+00  1.0000000297610099e+00  9.9999710254809893e-01  1.0000000498580239e+00  9.9999902726287360e-01  1.0000002530983898e+00  9.9997498386748906e-01  1.0037558886661362e+00  1.0374196540330798e+00  9.9990392203976763e-01  1.0000030791807395e+00  9.9979061616226339e-01  9.9999772516190877e-01  8.9951395445227778e-01  8.8304481710252403e-01  1.0003436015430625e+00  9.9999833921163706e-01  9.9999826660133528e-01  1.0000118943817538e+00  1.0000000133541171e+00  9.9990133512979296e-01  9.9999499392533286e-01  1.0000038517013750e+00  9.9999631181224402e-01  9.9999965551677372e-01  9.9822954026053423e-01  1.0000798173565095e+00  1.0000027576289243e+00  9.9998805114377276e-01  9.9936874131439490e-01  1.0000063106170498e+00  9.9999972902458223e-01  1.0000000167280232e+00  1.0035408347193264e+00  9.6299486098391207e-01  9.7947064046189869e-01  1.0007803008236411e+00  1.0000004729584786e+00  9.9999753958412418e-01  9.9894715920614785e-01  1.0000078176613594e+00  9.9673072688128961e-01  1.0000000183436832e+00  1.0002180768155611e+00  9.9999840686186137e-01  1.0001288621252855e+00  1.0000483486854619e+00  9.9999823376873065e-01  6.3662543033183105e-01  5.9633435812201652e-01  9.9999793569729856e-01  1.0257187446370175e+00  1.0485043691528899e+00  1.0000028580749269e+00  1.0023803729264729e+00  9.9999584162456057e-01  1.0036470368388044e+00  1.0000006621635438e+00  9.9999735957394442e-01  1.0003071684155800e+00  1.0000023900586978e+00  1.0001049248073959e+00  1.0000377208350659e+00  1.0111282647002435e+00  1.0131775916404222e+00  1.0173381918617816e+00  1.0000000123798365e+00  1.0011189354275982e+00  1.1878995057383475e+00  1.1116339615881541e+00  1.0006873379506567e+00  9.9999711578913864e-01  9.9999709009832527e-01  1.0000231093833805e+00  9.9920805002482682e-01  9.9999817081491549e-01  9.9999901283875869e-01  9.9999789676551831e-01  9.9998040211382611e-01  9.9993231795955395e-01  2.2005619369362104e+00  2.2064890536150741e+00  9.9799589828471524e-01  9.9825392306212490e-01  1.0133275340026207e+00  9.9999525468262795e-01  1.0021232391945689e+00  9.9999930321726138e-01  1.0000063445556264e+00  9.9938281244740812e-01  9.5816311201477089e-01  9.9964998238606084e-01  9.9999834539223853e-01  9.9999070484644337e-01  1.0013168787715858e+00  9.8962142204378667e-01  9.9999777708285364e-01  9.9999774868156355e-01  9.9997665903640187e-01  1.0000000255798047e+00  9.9999909671395171e-01  1.0000029757140401e+00  8.5285684248540872e-01  9.9999806407554515e-01  9.9999787440441301e-01  7.8567214083605097e-01  9.0783880909576742e-01  1.0000006339300327e+00  9.9999869651497231e-01  9.9991841257357450e-01  1.0002038811345852e+00  1.0000107980183601e+00  9.9893051849846792e-01  9.9923825248828291e-01  9.9999165101095189e-01  9.9999657368519879e-01  9.9999999468623479e-01  9.9677196044357219e-01  9.9998878942637770e-01  1.0020004589619198e+00  9.9999710617670989e-01  9.9999078825070209e-01  1.0033014560565636e+00  1.0384179376500371e+00  9.9639603087485684e-01  9.9999713725819817e-01  9.9999794742315073e-01  9.9999871791068340e-01  1.0000160736006765e+00  6.4557003914086986e-01  3.4021835930903149e-01  9.9999829269301732e-01  9.9999587036708792e-01  1.0000279702121224e+00  9.9999956842505355e-01  1.0001245962194647e+00  9.9999736532642358e-01  1.0000000316680127e+00  9.9999939131514093e-01  9.9999928959486906e-01  1.0033235511786869e+00  6.4323857641090898e-01  1.0000471333354757e+00  1.0006743150917763e+00  9.9953657966077214e-01  1.0000561149055489e+00  9.9992052005739862e-01  9.9999746951763391e-01  9.9999712268184249e-01  9.9999930059571984e-01  9.9999730913410823e-01  9.9999848190130258e-01  9.6652488743956233e-01  1.0000000086444087e+00  1.1811441696998857e+00  1.0148426560640649e+00  1.0403938960249404e+00  1.0674672488093211e+00  1.1872772672032965e+00  1.0398223959954136e+00  9.9999985443628547e-01  1.0036013611096080e+00  9.9967406875881026e-01  1.0171801420715358e+00  9.9413642647197153e-01  1.0000075047113157e+00  9.9998731720671385e-01  1.0005924872151202e+00  1.2206538876362223e+00  1.2993748026245067e+00  1.0000012029234733e+00  9.9342135552971822e-01  1.0000041771356987e+00  9.9861669795378327e-01  9.9999930971375317e-01  9.0081471196814922e-01  9.9999712951797259e-01  9.9999747620044988e-01  9.9997457774021936e-01  9.9987900912823990e-01  1.0004870273398747e+00  1.5377964600692924e+00  1.5927427361630389e+00  1.0000008951956372e+00  1.0000009027495240e+00  9.5306834900334858e-01  1.0000016652352162e+00  9.9999777532864365e-01  9.9999749100144775e-01  1.0004109082817305e+00  1.0000001218889829e+00  9.9747373081701218e-01  9.9830218258816095e-01  1.0000974044230879e+00  1.0000016334929775e+00  9.9993468093920845e-01  9.9951978096620697e-01  2.3896051853278530e+00  9.9999993850657953e-01  1.0000000340364124e+00  9.9999986445458178e-01  1.0008180135943154e+00  9.9999985815953729e-01  9.9938250554756514e-01  1.0933316036020897e+00  1.0251969682502720e+00  1.0000000322203597e+00  9.9967796460607650e-01  9.9999941721637498e-01  1.0000000300529694e+00  9.9999958302669012e-01  9.9996393604862832e-01  1.0003892156600522e+00  9.9999910094145095e-01  9.9999740829132100e-01  9.9093858441225713e-01  1.0000087256905934e+00  9.9999755379063360e-01  1.0001110939333056e+00  1.0000229074297162e+00  1.0001222036525521e+00  9.9999296274943472e-01  9.9973060220821197e-01  1.0000016289818725e+00  2.9183404686099451e-01  9.9981030531687876e-01  9.9994958231126230e-01  9.8083581845930734e-01  9.9996589838461591e-01  9.9931589836919177e-01  9.3117649761972587e-01  9.9844525229715597e-01  1.0000161896322171e+00  9.9572787782232774e-01  9.9976001117654001e-01  9.9995748460352596e-01  9.9831630880148392e-01  9.9938457060633656e-01  7.9480215870615356e-01  9.9999708960783518e-01  1.1331883101517399e+00  9.9999837466492181e-01  1.0782986141119961e+00  1.0080355956661391e+00  1.0001201055197868e+00  9.9999743241396200e-01  9.6930558501327058e-01  9.9966920332896880e-01  1.0011766714829449e+00  9.9870646119363660e-01  9.9999810499594421e-01  1.0313312268411814e+00  9.9999853087785218e-01  1.0000086522247977e+00  1.0000293125975224e+00  9.9999776709903598e-01  1.0012232236537162e+00  9.9998848124811590e-01  1.0000156962980562e+00  1.0010874030842689e+00  1.0002004155989133e+00  1.0054873248396865e+00  9.9999685283276230e-01  1.0183809904560979e+00  1.0013010827362665e+00  1.0000272632719676e+00  1.0000784735931674e+00  1.0000233454563159e+00  1.0002575952349986e+00  9.9999503312909810e-01  9.9999736506903902e-01  9.9758791103707933e-01  1.0002209027232045e+00  9.9999740577417873e-01  9.7717679620645181e-01  1.0000009285173570e+00  9.9999971227504669e-01  9.9999839557086478e-01  1.0124785479329463e+00  8.9167636992632049e-01  1.0049857893914036e+00  9.9999806875675623e-01  9.9999842853900645e-01  9.9999803205739279e-01  1.0187425379507058e+00  1.0004683441043922e+00  1.2443751400669478e+00  1.3711736257897023e+00  1.0000007169478575e+00  1.0000414996132572e+00  1.0000020241490561e+00  9.9999865161953938e-01  9.9999846853155150e-01  9.9999810162226310e-01  9.9999944711688071e-01  1.0002289991750677e+00  9.9999816794023477e-01  5.2982110893981349e-01  9.9999769827826335e-01  1.0107939582012297e+00  1.1000355208998849e+00  9.9712499390856790e-01  9.9912079072540272e-01  9.9876278865720702e-01  9.9823613573287662e-01  9.9999978052194149e-01  6.1350163222792220e-01  1.8253766640554692e+00  1.8731918518603821e+00  1.6179508467549724e+00  1.8010137602141099e+00  9.9997122597108201e-01  9.9982549261010922e-01  9.9999734117301509e-01  1.0504019049564106e+00  9.9999899230857037e-01  1.0000031067100046e+00  9.9999830882634544e-01  9.9999730830182432e-01  9.9999840491508285e-01  1.0000052639975943e+00  9.9474782306905041e-01  1.0000661524383294e+00  1.0000003379458879e+00  1.0062817843702441e+00  9.9999377427294189e-01  9.9999870321403683e-01  9.9991005081859341e-01  9.9988872513633265e-01  9.9968245263827704e-01  1.0015779541046850e+00  9.9999372943168763e-01  1.0031216543193942e+00  9.9462346341804420e-01  9.9943441631887586e-01  9.9999743506175487e-01  1.0042183881308613e+00  9.9999969526673960e-01  1.1019035298269044e+00  9.9999383381174445e-01  1.0071354074416001e+00  9.9999641249247095e-01  1.0159420098619933e+00  1.0000077671274525e+00  9.9998574703215393e-01  1.0000021452885943e+00  9.9999983802277148e-01  9.9999981290950835e-01  1.0000107008546681e+00  2.1316020475094604e+00  2.0509784194881577e+00  9.9999736052194022e-01  9.9999550071928678e-01  9.9999864499299362e-01  1.0002172907761431e+00  1.0005018067701161e+00  1.0011574849215130e+00  9.9999120469517810e-01  9.9984136149314373e-01  1.0003217512699953e+00  9.9999979652542637e-01  9.9997156147790689e-01  1.0002169337918942e+00  1.0000000650527869e+00  9.3076398619251932e-01  1.0201131778718062e+00  9.9904483921098919e-01  9.9997988595728360e-01  9.9999835266016934e-01  1.0000011810894540e+00  1.0000114358594236e+00  9.9798736646836084e-01  9.8252962883217210e-01  9.2023327321815929e-01  1.0000678217375489e+00  9.9371104745498873e-01  9.7496129948405796e-01  9.9999925910047482e-01  2.8321617674206784e-01  9.9846478190444055e-01  9.9999965993974260e-01  9.4246848646298609e-01  1.2984462298709620e+00  9.9999782977451568e-01  1.0006989718483772e+00  9.9999747525968596e-01  9.9999657091418359e-01  9.9993804249431140e-01  9.9998659018708191e-01  1.0000946568320812e+00  1.0000014608391823e+00  1.0000015597855691e+00  1.0085516615174226e+00  1.0000254298639124e+00  1.0000070445203786e+00  1.0000058122886870e+00  1.1169322693579595e+00  1.0000111480584559e+00  9.9919348222621085e-01  9.9999118800732534e-01  9.9993947674790706e-01  1.0000021213179209e+00  9.9999735859606154e-01  1.0005022127273300e+00  9.9959912362004122e-01  7.8332121908337660e-01  7.5605341360091805e-01  9.9971898761676636e-01  9.9998893567607505e-01  1.0000000333215162e+00  9.9999967671899226e-01  1.0002312677048792e+00  1.0000004461148662e+00  9.8476991184255158e-01  8.8646067102518100e-01  1.0114964777891484e+00  9.9999795294523686e-01  1.5522134487376085e+00  1.0387629136110157e+00  1.2528247352016675e+00  1.0000000587441158e+00  1.0000015567256828e+00  1.0000017750720434e+00  6.7651423347637818e-01  1.0022316389582806e+00  9.9999993746826599e-01  1.0000994000281143e+00  1.0000785488870867e+00  1.0016848706016825e+00  9.9999908974374352e-01  9.9999791216340661e-01  1.0000098333676184e+00  9.9999831004677409e-01  1.0000007260618133e+00  9.9999973642446238e-01  1.0001464326247520e+00  2.6611030238268757e-01  9.9999766780196275e-01  9.8625460939548448e-01  1.0000006482547661e+00  9.3095614457858455e-01  1.0000661116036196e+00  9.9999910924699509e-01  1.0000637208889842e+00  1.0000059911344603e+00  9.8601543406200087e-01  9.8664819507470458e-01  1.0000458595584125e+00  1.0002614917850650e+00  1.0000606264610350e+00  1.0000362562492724e+00  9.9999876730813819e-01  1.0000049101094115e+00  1.0000001254250768e+00  1.1048908455398030e+00  1.0000034676974043e+00  1.0442300234308759e+00  9.9994311035399541e-01  1.0000323780243345e+00  9.7250043384270013e-01  1.3598222758294141e+00  9.7669334270081154e-01  1.0743714028676719e+00  1.0938968282970349e+00  9.9841912685282097e-01  9.9999721913908379e-01  9.9999902878470170e-01  1.0019331026656348e+00  9.9999913828053677e-01  9.9998348430958006e-01  9.9999934010011560e-01  9.9999781979839608e-01  1.0000769239812710e+00  9.9999905898405594e-01  9.9999793213056987e-01  1.0032975250133891e+00  1.0001992687256829e+00  1.0000750801843228e+00  1.0018699394686799e+00  1.0031543220245875e+00  1.0676158893298702e+00  1.4496320189200165e+00  9.9973815847302627e-01  9.9866405557052174e-01  9.9912620582309775e-01  9.9907164668858872e-01  9.9997339782037453e-01  9.9997432535509756e-01  9.9999893670441153e-01  1.1039893708344584e+00  1.0096346671891070e+00  9.9716620173908432e-01  9.9717014397411308e-01  1.0000083458123339e+00  6.4903167179524490e-01  9.9999210140246642e-01  1.0014032475569070e+00  1.0003668995959492e+00  1.0008118615356294e+00  1.6426280265981872e+00  9.9999823783626918e-01  1.0490401519084134e+00  1.0000435104261023e+00  1.0197154363087266e+00  9.4778883226995037e-01  9.9999737592069171e-01  9.9414588569729501e-01  1.0000110029840257e+00  1.0021632472428472e+00  1.0410611553952660e+00  1.0095737714830004e+00  9.9884583013881301e-01  9.9999867667955278e-01  9.9998897728511116e-01  1.0000070654295274e+00  9.9999993416299959e-01  1.0021783929020327e+00  9.9999919237369339e-01  9.9999652229284974e-01  1.0083469878758082e+00  1.1187309239870344e+00  1.0000003790812739e+00  9.9999770297644019e-01  1.7868870903173282e+00  1.0006571395969439e+00  1.0002598326334144e+00  1.0034839925432761e+00  1.0225130661117197e+00  6.7828655924163161e-01  1.3144527488661106e+00  8.3406848576645454e-01  6.6797873510550188e-01  9.9999770782168440e-01  9.9999721923646256e-01  9.9999999633219228e-01  1.0000091800129303e+00  9.9600957630095854e-01  1.0000085046292875e+00  1.0002409812523514e+00  9.9999923672371249e-01  9.9998908544216636e-01  9.9999381176622315e-01  1.0000010835940698e+00  9.9973165016236609e-01  1.0000000050881439e+00  9.9999980115447074e-01  9.4887851274705859e-01  9.9999998294332126e-01  9.9999925733190220e-01  1.0012043453355948e+00  9.9869412263747093e-01  9.9999777617414820e-01  9.9999856910687868e-01  9.1304997636368757e-01  9.9830752043620197e-01  9.9999796087412651e-01  9.9982523688422353e-01  1.0005381679770362e+00  9.9999866275014215e-01  9.9986396557497559e-01  9.9991292398053355e-01  1.0000005303085577e+00  9.9913201168731092e-01  1.0000001548110748e+00  9.9999721241886785e-01  1.0014341968836618e+00  1.0036753135957848e+00  1.0000019799012718e+00  9.9997948535929693e-01  9.9680778761981770e-01  1.0000564068752242e+00  1.0000346056391101e+00  1.0000375351593995e+00  9.9999636132313496e-01  9.9999916453017579e-01  9.9999875135600291e-01  9.9999972844019047e-01  9.9999971816310251e-01  4.5479674866971126e-01  4.6602083493508950e-01  9.9999899703524320e-01  1.0000002420644309e+00  1.0000081578449391e+00  9.9999725233619363e-01  9.9999711096513744e-01  1.0000006045078058e+00  2.0019366075293030e+00  1.1002565633625945e+00  1.9648367031699576e+00  1.0002857386930997e+00  9.9999848756316478e-01  1.0002994994691294e+00  9.9999964290667431e-01  9.9293588901599095e-01  1.0000027943182053e+00  9.8380538932197248e-01  9.9770928958173810e-01  9.9702149995446998e-01  9.9999932847397388e-01  9.9960465017978017e-01  9.9920012610233400e-01  9.2697836024172187e-01  8.7248333893354602e-01  9.9999875051600151e-01  9.9999769268655048e-01  9.9999712783662287e-01  1.0235522077199031e+00  9.9175216260227983e-01  1.0000008035339114e+00  9.9998752353240883e-01  1.0008674989139910e+00  1.0004666843378116e+00  9.9998914609483236e-01  1.0003872600931851e+00  9.9999078687063414e-01  9.9999725715196863e-01  9.9999712534434471e-01  9.9999723872908697e-01  1.0000031286508493e+00  9.9946682558519628e-01  9.9999963967888894e-01  1.0000000335371519e+00  1.0000000191974434e+00  9.9626275199199466e-01  9.9985941801276923e-01  1.0369469239845215e+00  1.0018524202295116e+00  9.9999115108034586e-01  9.9998957421404489e-01  9.9993134080368462e-01  9.9980244011163810e-01  9.9999998545474600e-01  1.0031736071177813e+00  9.9978712144566217e-01  1.3954866636462211e+00  1.6475313722649327e+00  1.5271157167879770e+00  1.5439306708740950e+00  9.9999708296461021e-01  9.9999992226771983e-01  9.9999721511584005e-01  1.0000044196788793e+00  9.9999207223684228e-01  9.9999679840771838e-01  9.5884198567663759e-01  9.9999865357623940e-01  9.9766473308936099e-01  9.9999793283403293e-01  9.8642903406176996e-01  1.0000170333180787e+00  9.9980931106458282e-01  1.0000861362339204e+00  1.0000231065493925e+00  1.3376893588692440e+00  9.9999856507685891e-01  1.5822816946272689e+00  1.3891761888137357e+00  1.0000120037262816e+00  1.0000132089302365e+00  9.9862108880302647e-01  1.0000043549571118e+00  9.9018601391109473e-01  1.0000050560667717e+00  8.4874858535497055e-01  1.0009696705278797e+00  1.0000124673502648e+00  9.9999968135248418e-01  9.9999714163967457e-01  9.9999872178913174e-01  2.2653513199973672e+00  2.1470117747370012e+00  2.3917573857802168e+00  1.1707652044592767e+00  9.9999711617321241e-01  9.9999775637071775e-01  9.9999982599513881e-01  4.2906289681525234e-01  9.9999981981503294e-01  1.2362700237679660e+00  9.9999720915430712e-01  9.999976539759862