<?xml version="1.0"?>
<VTKFile type="UnstructuredGrid"  version="0.1"  >
<UnstructuredGrid>
<Piece  NumberOfPoints="3542" NumberOfCells="6362">
<Points>
<DataArray  type="Float64"  NumberOfComponents="3"  format="ascii">-20 2 0  -20 0 0  -1 0 0  -0.9996988186962042 0.02454122852291233 0  -0.9987954562051724 0.04906767432741797 0  -0.9972904566786902 0.07356456359966773 0  -0.9951847266721968 0.09801714032956083 0  -0.99247953459871 0.1224106751992163 0  -0.989176509964781 0.1467304744553618 0  -0.9852776423889412 0.1709618887603012 0  -0.9807852804032304 0.1950903220161286 0  -0.9757021300385285 0.21910124015687 0  -0.970031253194544 0.2429801799032641 0  -0.9637760657954398 0.2667127574748985 0  -0.9569403357322088 0.2902846772544624 0  -0.9495281805930367 0.3136817403988914 0  -0.9415440651830207 0.3368898533922203 0  -0.9329927988347388 0.3598950365349883 0  -0.9238795325112867 0.3826834323650899 0  -0.9142097557035307 0.4052413140049899 0  -0.9039892931234433 0.427555093430282 0  -0.8932243011955152 0.4496113296546069 0  -0.8819212643483549 0.4713967368259979 0  -0.8700869911087113 0.4928981922297841 0  -0.857728610000272 0.5141027441932218 0  -0.8448535652497071 0.5349976198870972 0  -0.8314696123025453 0.5555702330196022 0  -0.8175848131515836 0.5758081914178454 0  -0.8032075314806448 0.5956993044924335 0  -0.7883464276266062 0.6152315905806269 0  -0.773010453362737 0.6343932841636455 0  -0.7572088465064846 0.6531728429537766 0  -0.7409511253549589 0.6715589548470186 0  -0.7242470829514668 0.6895405447370671 0  -0.7071067811865475 0.7071067811865476 0  -0.6895405447370669 0.7242470829514669 0  -0.6715589548470184 0.740951125354959 0  -0.6531728429537765 0.7572088465064847 0  -0.6343932841636454 0.7730104533627371 0  -0.6152315905806267 0.7883464276266063 0  -0.5956993044924334 0.8032075314806449 0  -0.5758081914178453 0.8175848131515837 0  -0.555570233019602 0.8314696123025455 0  -0.534997619887097 0.8448535652497072 0  -0.5141027441932217 0.8577286100002721 0  -0.492898192229784 0.8700869911087115 0  -0.4713967368259977 0.881921264348355 0  -0.4496113296546067 0.8932243011955152 0  -0.4275550934302819 0.9039892931234434 0  -0.4052413140049897 0.9142097557035307 0  -0.3826834323650897 0.9238795325112867 0  -0.3598950365349882 0.9329927988347388 0  -0.3368898533922199 0.9415440651830208 0  -0.3136817403988914 0.9495281805930367 0  -0.2902846772544622 0.9569403357322089 0  -0.2667127574748983 0.9637760657954398 0  -0.2429801799032639 0.970031253194544 0  -0.2191012401568697 0.9757021300385286 0  -0.1950903220161282 0.9807852804032304 0  -0.1709618887603012 0.9852776423889412 0  -0.1467304744553616 0.989176509964781 0  -0.1224106751992162 0.99247953459871 0  -0.09801714032956065 0.9951847266721969 0  -0.07356456359966733 0.9972904566786902 0  -0.04906767432741801 0.9987954562051724 0  -0.02454122852291214 0.9996988186962042 0  6.123233995736766e-17 1 0  0.02454122852291226 0.9996988186962042 0  0.04906767432741813 0.9987954562051724 0  0.07356456359966745 0.9972904566786902 0  0.09801714032956077 0.9951847266721968 0  0.1224106751992163 0.99247953459871 0  0.1467304744553617 0.989176509964781 0  0.1709618887603014 0.9852776423889412 0  0.1950903220161283 0.9807852804032304 0  0.2191012401568698 0.9757021300385286 0  0.242980179903264 0.970031253194544 0  0.2667127574748984 0.9637760657954398 0  0.2902846772544623 0.9569403357322089 0  0.3136817403988916 0.9495281805930367 0  0.3368898533922201 0.9415440651830208 0  0.3598950365349883 0.9329927988347388 0  0.3826834323650898 0.9238795325112867 0  0.4052413140049899 0.9142097557035307 0  0.4275550934302822 0.9039892931234433 0  0.4496113296546066 0.8932243011955153 0  0.4713967368259978 0.8819212643483549 0  0.4928981922297841 0.8700869911087113 0  0.5141027441932217 0.8577286100002721 0  0.5349976198870973 0.844853565249707 0  0.5555702330196023 0.8314696123025452 0  0.5758081914178453 0.8175848131515837 0  0.5956993044924335 0.8032075314806448 0  0.6152315905806268 0.7883464276266062 0  0.6343932841636455 0.773010453362737 0  0.6531728429537768 0.7572088465064845 0  0.6715589548470183 0.7409511253549591 0  0.6895405447370669 0.7242470829514669 0  0.7071067811865476 0.7071067811865475 0  0.724247082951467 0.6895405447370668 0  0.7409511253549591 0.6715589548470183 0  0.7572088465064846 0.6531728429537768 0  0.773010453362737 0.6343932841636455 0  0.7883464276266063 0.6152315905806268 0  0.8032075314806449 0.5956993044924334 0  0.8175848131515837 0.5758081914178453 0  0.8314696123025452 0.5555702330196022 0  0.8448535652497071 0.5349976198870972 0  0.8577286100002721 0.5141027441932217 0  0.8700869911087115 0.492898192229784 0  0.881921264348355 0.4713967368259976 0  0.8932243011955153 0.4496113296546065 0  0.9039892931234433 0.4275550934302821 0  0.9142097557035307 0.4052413140049899 0  0.9238795325112867 0.3826834323650898 0  0.932992798834739 0.3598950365349881 0  0.9415440651830208 0.3368898533922201 0  0.9495281805930367 0.3136817403988915 0  0.9569403357322088 0.2902846772544623 0  0.9637760657954398 0.2667127574748984 0  0.970031253194544 0.2429801799032639 0  0.9757021300385286 0.2191012401568698 0  0.9807852804032304 0.1950903220161282 0  0.9852776423889412 0.1709618887603012 0  0.989176509964781 0.1467304744553617 0  0.99247953459871 0.1224106751992162 0  0.9951847266721969 0.0980171403295606 0  0.9972904566786902 0.07356456359966743 0  0.9987954562051724 0.04906767432741801 0  0.9996988186962042 0.02454122852291229 0  1 0 0  20 0 0  20 2 0  0 2 0  -10 2 0  10 2 0  -10.5 0 0  -5 2 0  10.5 0 0  5 2 0  -15 2 0  -5.75 0 0  -2.5 2 0  15 2 0  5.75 0 0  2.5 2 0  -15.25 0 0  -3.375 0 0  15.25 0 0  3.375 0 0  -17.625 0 0  -17.5 2 0  17.5 2 0  17.625 0 0  8.125 0 0  7.5 2 0  12.875 0 0  12.5 2 0  -12.5 2 0  -12.875 0 0  -8.125 0 0  -7.5 2 0  -18.75 2 0  -18.8125 0 0  18.75 2 0  18.8125 0 0  16.4375 0 0  16.25 2 0  -16.25 2 0  -16.4375 0 0  13.75 2 0  -14.0625 0 0  -13.75 2 0  -11.6875 0 0  11.6875 0 0  -9.3125 0 0  8.75 2 0  -8.75 2 0  6.9375 0 0  6.25 2 0  -6.9375 0 0  -6.25 2 0  9.3125 0 0  11.25 2 0  -11.25 2 0  3.75 2 0  4.5625 0 0  -4.5625 0 0  -3.75 2 0  -1.25 2 0  1.25 2 0  14.0625 0 0  2.1875 0 0  -2.1875 0 0  -20 1 0  20 1 0  18.21875 0.982421875 0  -18.21875 0.982421875 0  16.875 1.0498046875 0  -17.03125 0.966796875 0  -15.84375 0.953125 0  15.625 1.0625 0  14.375 1.0732421875 0  -14.375 1.0732421875 0  1.830289387965117 1.052284088108649 0  -1.830289387965117 1.052284088108649 0  -3.125 1.08203125 0  -13.28477656888586 1.012129001112436 0  13.125 1.08203125 0  3.125 1.08203125 0  -4.375 1.0888671875 0  11.875 1.0888671875 0  -11.875 1.0888671875 0  4.203765290519877 1.0193030867737 0  -5.625 1.09375 0  5.625 1.09375 0  10.625 1.09375 0  -10.80634835916782 1.025744365312066 0  9.375 1.0966796875 0  -6.875 1.0966796875 0  -9.375 1.0966796875 0  6.684990875912408 1.03136405109489 0  -8.322099415573495 1.036062682633283 0  8.125 1.09765625 0  19.11075969939671 0.8508947319664032 0  -19.11075969939671 0.8508947319664032 0  -7.53125 0 0  8.71875 0 0  7.423362102206937 0.6655467048188293 0  9.90625 0 0  -6.34375 0 0  -10.07209987056368 0.6864155791813131 0  -5.15625 0 0  4.932893941568688 0.70313517104756 0  11.09375 0 0  -3.96875 0 0  12.28125 0 0  -12.56167362378033 0.7158719711052053 0  -15.12789358749343 1.239622257084254 0  19.375 2 0  -19.375 2 0  -7.586458743762512 0.7777256637040587 0  -8.876841588719831 0.5749490497356908 0  -2.78125 0 0  13.46875 0 0  2.486351124110562 0.6882204272146759 0  -2.484375 0.6875496078884429 0  13.765625 0.6685592193186988 0  6.127605163798639 0.5971727330055587 0  0.625 2 0  -0.625 2 0  -1.146535794159178 1.28513409566998 0  1.146535794159178 1.285134095669981 0  14.65625 0 0  14.953125 0.6512707752786624 0  -14.87682753143027 0.5890664696931456 0  12.578125 0.6384885491877257 0  -3.671875 0.6384885491877257 0  -15.625 2 0  -11.36675239212577 0.6158089665857418 0  15.00271470412651 1.324726469417674 0  17.53235848397354 0.7266244978817956 0  11.390625 0.6116981677410314 0  -4.859375 0.6116981677410314 0  15.84375 0 0  16.140625 0.6148897058823529 0  7.497593266890831 1.330710907262048 0  13.76254792112057 1.334335181755445 0  -10.20969602084016 1.352738855957021 0  17.03125 0 0  3.639986821556412 0.6311208834101457 0  -2.422032960990368 1.344610008595471 0  -1.875 2 0  2.42168763602468 1.344854035092462 0  1.875 2 0  -6.046875 0.5879464285714285 0  10.203125 0.5879464285714285 0  4.785027294216357 1.360955117010924 0  -16.43327865604348 1.32661481258014 0  -16.44139997701004 0.663326532427168 0  -12.71719161438206 1.366886164755866 0  9.015625 0.567039754702805 0  -13.85227446991684 0.6433291643838606 0  17.68435132148515 1.367585767263021 0  -8.125 2 0  -7.779164034427432 1.405551895778211 0  6.875 2 0  -16.875 2 0  16.25211206745888 1.264109755085799 0  -3.748868614850469 1.292331074664245 0  12.50113138514953 1.292331074664245 0  -4.999425840599162 1.238293400364507 0  11.25057415940084 1.238293400364507 0  10.00021284174179 1.186027320246887 0  -6.249787158258211 1.186027320246887 0  8.750028772491092 1.133996757348608 0  8.125 2 0  -9.375 2 0  -6.875 2 0  9.375 2 0  10.625 2 0  5.625 2 0  -5.625 2 0  -11.875 2 0  11.875 2 0  -4.375 2 0  3.125 2 0  13.125 2 0  -14.375 2 0  14.375 2 0  15.625 2 0  -18.125 2 0  16.875 2 0  -3.125 2 0  -10.625 2 0  4.375 2 0  -13.125 2 0  18.125 2 0  -17.62042339570457 1.322431301452557 0  -17.64048254773117 0.661277151197267 0  -1.59375 0 0  1.59375 0 0  -19.40625 0 0  19.40625 0 0  20 0.5 0  19.0625 1.466926268772181 0  -18.7305243036722 1.362703047674974 0  -5.451064633443578 0.5209722999527524 0  10.79893536655642 0.5209722999527524 0  9.610417111950763 0.5183010867631196 0  -13.46875 0 0  3.96875 0 0  -11.09375 0 0  6.34375 0 0  2.78125 0 0  -8.71875 0 0  -12.28125 0 0  5.15625 0 0  -9.90625 0 0  7.53125 0 0  -15.84375 0 0  -17.03125 0 0  -18.21875 0 0  18.21875 0 0  -14.65625 0 0  20 1.5 0  -19.48071156660626 1.370757229128913 0  -20 0.5 0  -4.24552725411087 0.5169543671041
[...]
<PointData  Scalars="f_2203923"> 
<DataArray  type="Float64"  Name="f_2203923"  format="ascii">1.0039387374486184e+00  1.0003993806046247e+00  1.0000842896590223e+00  1.0014729873726664e+00  1.0040036941580208e+00  1.0089114395617773e+00  1.0157353387052495e+00  1.0247268165040870e+00  1.0364299455163093e+00  1.0605513931588044e+00  1.0558360153871476e+00  1.0672204825161726e+00  1.0974140387448137e+00  1.1175413157298411e+00  1.1389871558342941e+00  1.1636606531533635e+00  1.1895854219260327e+00  1.2175422948011498e+00  1.2471853168507427e+00  1.2779675031839768e+00  1.3102839160597817e+00  1.3465703233575761e+00  1.3829677239633700e+00  1.4204495334772256e+00  1.4590368845830468e+00  1.4996923896454848e+00  1.5400375007143474e+00  1.5818324000474231e+00  1.6235267122928290e+00  1.6657768349379201e+00  1.7063901352147666e+00  1.7486337638937046e+00  1.7943738782182668e+00  1.8342227350302875e+00  1.8685595916146356e+00  1.9036986740445556e+00  1.9361634371893561e+00  1.9674240895271746e+00  2.0013764186443184e+00  2.0272789355899827e+00  2.0471005166911649e+00  2.0679883420567817e+00  2.0789206082708978e+00  2.0901297789070830e+00  2.0758055912691451e+00  1.9435327711542154e+00  1.9863105614218324e+00  1.9452363763764289e+00  2.0447460833830244e+00  1.9993250848519986e+00  1.9779410650875426e+00  1.9411743601319140e+00  1.8870849642178633e+00  1.8367896918956177e+00  1.7854754542476508e+00  1.7232969944504322e+00  1.6420231286402611e+00  1.5891085924298156e+00  1.5203544886750386e+00  1.4520549598328349e+00  1.3892680757483347e+00  1.3144479246828269e+00  1.2499924378506766e+00  1.1961611843399598e+00  1.1133374167188814e+00  1.0530842183547233e+00  9.9877648418486975e-01  9.4965072170471532e-01  8.9786487296452167e-01  8.3315247308248219e-01  7.9555471894205376e-01  7.8125064053304816e-01  7.4310008769001779e-01  6.9373891014622280e-01  6.6332886700155724e-01  6.4290139431845461e-01  6.2043527039804858e-01  5.8841708260564030e-01  6.0617734050623262e-01  5.9715573134021516e-01  5.8135172766434062e-01  5.8002786846946408e-01  5.8772641435437245e-01  6.0122939788009389e-01  5.9043725825291882e-01  5.9662559167400275e-01  6.0235946929712558e-01  6.1568837949280386e-01  6.3974115182442348e-01  6.4184843144507964e-01  6.4846425043676126e-01  6.6050048216343493e-01  6.7157759624501590e-01  6.8556855892456980e-01  7.0113892205399997e-01  7.1378893076341032e-01  7.2763088834140943e-01  7.4066881720957312e-01  7.5281718713322998e-01  7.6482090560393035e-01  7.7592753061635145e-01  7.8754067647136783e-01  7.9991828075061844e-01  8.1228215811109405e-01  8.2399557823791958e-01  8.3549718289484076e-01  8.4661582563161164e-01  8.5736003065033217e-01  8.6816009750896406e-01  8.7832471395819112e-01  8.8893919327015303e-01  8.9918052704338025e-01  9.0892044400278704e-01  9.1877636386938799e-01  9.4270994679367059e-01  9.2559898112639893e-01  9.2603892777869645e-01  9.4935318187294881e-01  9.5761885504898725e-01  9.6399868654425158e-01  9.6980701591776441e-01  9.7537844126132678e-01  9.8047632726912437e-01  9.8492753470820749e-01  9.8882456793021323e-01  9.9186698918966731e-01  9.9469792523945322e-01  9.9676501630074110e-01  9.9838534600084616e-01  9.9859963829881959e-01  9.9970528165351391e-01  9.9999947730664740e-01  9.9999947728534144e-01  1.0190797436238002e+00  1.0000000018714361e+00  9.9999948509954029e-01  1.0000000061093508e+00  9.9996623382405692e-01  9.9999946892019942e-01  9.9991809852436875e-01  9.9999999999904921e-01  9.9997166200646292e-01  1.0016839471079402e+00  9.9999947773495657e-01  1.0000374521724633e+00  1.0021290425576515e+00  9.9999999999872968e-01  1.0090907097512603e+00  9.9999947765200914e-01  9.8669814413499712e-01  9.9999999999986833e-01  9.9999999999307820e-01  9.9999947718294746e-01  9.9999947813033463e-01  1.0000012396653841e+00  9.9999941430902883e-01  9.9999947704516412e-01  9.9999947739864525e-01  9.9999999999353995e-01  1.0000000001518767e+00  9.9999882895184378e-01  9.9999994823474203e-01  1.0000000029573173e+00  9.9999999981059917e-01  9.9999947859612792e-01  9.9999947708633841e-01  9.9999947725939642e-01  9.9999947716696658e-01  1.0000000000027847e+00  1.0000000000015297e+00  9.9999947741670758e-01  1.0000000000078075e+00  1.0000000000102360e+00  1.0000000015148518e+00  9.9999947542368839e-01  9.9999994741283194e-01  9.9999955425655895e-01  1.0000000146130679e+00  1.0000145250829622e+00  9.9999264939342414e-01  9.9998961898408467e-01  9.9999888868324194e-01  9.9999956148158398e-01  9.9999947806084499e-01  1.0000000000139235e+00  9.9946017672826726e-01  9.9919719657367123e-01  1.0005176090398644e+00  9.9972703279691844e-01  1.0579932924198088e+00  1.0292550180365698e+00  9.9999947727761473e-01  9.0964529022733975e-01  1.0813808332969561e+00  1.0007047138804761e+00  9.9999947727635907e-01  9.9999947695726688e-01  1.0000000004391258e+00  9.9999947731502936e-01  1.0000000000013289e+00  9.9999999999982270e-01  9.9999947755894902e-01  9.9999947717557469e-01  9.9999999999376332e-01  1.0921818843823443e+00  9.8182840136762850e-01  9.9414454455835222e-01  9.9999999997733346e-01  9.9999947744927775e-01  1.0111497074674920e+00  9.9955530554171890e-01  9.9999947838606174e-01  9.9999999952945207e-01  1.0010058198011678e+00  1.0000031844181694e+00  9.9999565464267837e-01  9.9999948074902290e-01  9.9999999877483925e-01  9.9999943533481117e-01  1.0000047251793047e+00  1.0000000266358766e+00  9.9999210295863150e-01  1.0000003023407955e+00  9.9999857289780891e-01  9.9999947731647643e-01  9.9999994797564062e-01  9.9999614090614064e-01  9.9999994104505985e-01  1.0000012307579886e+00  9.9999947970399838e-01  9.9997731567782167e-01  1.0000000040760610e+00  1.0000427130653518e+00  1.0000376265757047e+00  9.9999947273487577e-01  1.0024938395343359e+00  9.9999947651363541e-01  1.0000000000426876e+00  9.9999999999591038e-01  9.9999947823553359e-01  1.0000015813872511e+00  9.9999973643093210e-01  9.9999993154854883e-01  1.0290127520586352e+00  9.9999947749621765e-01  9.8884959987174925e-01  1.0153768547753330e+00  9.9999947728018135e-01  1.0000199001210106e+00  1.0126291370807696e+00  1.0911936325968539e+00  9.4280987928117344e-01  1.5356675655300245e+00  9.9999947758237939e-01  9.9999947738052219e-01  9.9999999999859301e-01  9.9999947746935081e-01  1.0014390700767328e+00  1.0000000000064140e+00  1.0000000010070293e+00  9.9999947738174266e-01  9.9999947744981899e-01  9.9999947597921601e-01  1.0000237551009961e+00  9.9999947739282824e-01  9.9999947757635710e-01  9.9999505181757065e-01  9.9999947730926397e-01  9.9999999543154861e-01  9.9999947781781939e-01  9.9797941152539349e-01  9.7105847388525290e-01  1.0108081195632475e+00  1.0591472088056579e+00  1.0075798001667973e+00  9.9998368737739596e-01  9.9999947069121686e-01  1.0002171487302540e+00  9.9999999999930600e-01  1.0000000000004547e+00  9.9999999986909005e-01  9.9999953813716003e-01  9.9999999999793510e-01  9.9999947728723659e-01  1.0000000134036009e+00  1.0000015257874495e+00  9.9999827836478827e-01  9.9999999999995215e-01  9.9999947723474125e-01  9.9752051415347220e-01  9.9999947783559306e-01  9.9993366086609337e-01  9.9999948034063080e-01  9.9999947804872569e-01  1.0000119330086512e+00  9.9999921639957112e-01  9.9999950143846672e-01  1.0000000099701762e+00  9.9999951794852493e-01  9.9999949468547855e-01  9.9999947928789612e-01  9.9997658563443703e-01  9.9998722131310980e-01  9.9999999999916656e-01  9.9999947738566741e-01  9.9990500194066989e-01  9.9944889371861900e-01  9.9999947742000062e-01  1.0000000000011737e+00  9.9999947762913610e-01  9.9999947762916752e-01  9.9999999989407318e-01  9.9999947725758775e-01  9.9998334270827116e-01  1.0000000005523686e+00  9.9980249857497550e-01  1.0000000000030407e+00  9.9999947727707317e-01  1.0000000000312987e+00  1.0000000000044003e+00  1.1782571229466989e+00  8.5406794976047895e-01  9.9999738190374088e-01  9.9999947646195941e-01  9.9999947754806662e-01  9.9999947740420780e-01  9.9999999880253410e-01  9.9998001458884234e-01  9.9999947288514757e-01  9.9999948024714924e-01  1.0000000000353240e+00  9.9615239234220809e-01  1.0000000036229131e+00  1.0000313183286254e+00  9.6026258620804050e-01  9.9999970541063932e-01  1.0000000005280103e+00  9.9992038557223351e-01  1.0000000008319889e+00  1.0000051649853332e+00  1.0000000000041347e+00  1.0000000000058313e+00  1.0000000000025480e+00  9.9999947652451848e-01  9.9999999999679956e-01  9.9999947758462693e-01  9.9999890286001503e-01  1.0004263825985695e+00  1.0005655808190583e+00  9.9999947678934298e-01  1.0000000005035128e+00  1.0000000007219756e+00  9.9999947743125228e-01  9.9999947763340258e-01  9.9999947728533545e-01  9.9999947726405813e-01  1.0098496329553353e+00  9.8784504853855060e-01  1.1277847350073658e+00  9.0292131561799271e-01  9.9999947745145212e-01  9.9999999999994837e-01  9.9999999999413025e-01  9.9999947755801299e-01  1.0074982127557024e+00  2.9253720542451696e+00  1.1441355990577251e+00  9.9999999883816326e-01  9.9999999963010144e-01  9.9995163746533156e-01  1.0000311015127985e+00  9.9995491715909157e-01  1.0000039906331404e+00  9.9999115364825197e-01  9.9999999869141232e-01  9.9999999265754846e-01  1.0000000538479508e+00  9.9999984616955040e-01  1.0000000000412439e+00  9.9999999998656242e-01  9.9907336867766761e-01  1.0021009298582526e+00  1.0000000034342293e+00  9.9999999731205880e-01  1.0000000000054192e+00  1.0000000000012241e+00  9.9999892402675850e-01  9.9999940920204466e-01  1.0000133972716769e+00  9.9997520647314686e-01  9.9999942132654063e-01  1.0000002508392916e+00  9.9999947712255610e-01  9.9998853033015789e-01  1.0000000000006999e+00  9.9999947726465854e-01  9.9999948709755504e-01  1.0000108709547886e+00  1.0000234174894085e+00  9.9999948735536748e-01  9.9999999999993694e-01  1.0000000004996243e+00  9.2270111744473682e-01  1.2435498354124808e+00  9.3526214684654341e-01  9.9999545229048037e-01  1.0609805054748720e+00  1.0006614708376309e+00  9.9999947752687579e-01  1.0000001049193814e+00  9.9999948327508925e-01  1.0000213379565910e+00  1.0000001041749340e+00  9.9988028018196928e-01  9.9999947909406617e-01  9.9999947700442626e-01  9.9998421094151591e-01  1.0000000000186153e+00  9.9999947722091542e-01  9.9999947736204853e-01  9.9999999999981648e-01  1.0242180517660500e+00  9.8670568629966815e-01  9.9999999890854285e-01  9.9999947687979829e-01  9.9999765146478337e-01  9.9999947692975011e-01  9.9999947805695344e-01  9.9922573607183429e-01  9.9605321707068328e-01  9.9999947740770156e-01  1.0039796515049018e+00  9.9999779501310204e-01  9.9999947740928075e-01  9.9999999998724798e-01  9.9999947748800389e-01  9.9999947737399986e-01  9.9999999999961597e-01  9.9999999978534915e-01  1.0000000000051243e+00  9.9999997047830291e-01  9.9999503934974676e-01  9.4657333886322903e-01  1.1268411583130573e+00  9.4440910750279272e-01  1.4411897701499967e+00  9.9999947745093143e-01  1.0000678001074002e+00  9.9999947774829945e-01  9.9999998871264262e-01  1.0000000044326438e+00  1.0000000000005416e+00  9.9999947718539128e-01  9.9999999999957079e-01  9.9999898875760251e-01  1.0209184295719904e+00  1.4908920713292453e+00  9.9999947749561080e-01  9.9999947727653671e-01  9.9997095323248697e-01  9.9999947788438992e-01  1.0000000000709923e+00  9.9999962251775965e-01  9.9936244704719268e-01  9.9999947770887687e-01  9.9999999589260669e-01  1.0000081232499576e+00  1.0000000086652558e+00  1.0008129787209217e+00  9.9999947736558881e-01  1.0000023473739497e+00  9.9999999995920519e-01  9.9999999990772503e-01  1.0000000057894249e+00  1.0000000052250364e+00  1.0000000000001295e+00  9.9999799657594812e-01  1.0000522011585808e+00  1.0003449071092423e+00  9.9967828910139978e-01  9.9962983040081421e-01  9.9999947743968587e-01  1.0141492701010342e+00  9.9999999994744215e-01  1.0000000001269098e+00  1.0000000730132124e+00  1.0000003751632833e+00  9.9999766900603815e-01  9.9999809124778549e-01  9.9999946336331613e-01  9.9999999999969835e-01  1.0000000000068312e+00  9.9999947740173090e-01  9.2313704307958888e-01  1.0000000014773367e+00  1.0000000003264744e+00  1.0000013624167150e+00  1.0000006138075463e+00  9.9999947749671758e-01  9.9987875335108389e-01  9.9999996975441485e-01  1.0000027892028913e+00  9.9051070758831805e-01  1.0211331620394832e+00  9.4162791954798997e-01  9.6846328198485321e-01  1.0135334113681616e+00  1.0000000000181413e+00  1.0267511218900942e+00  1.0535136083715138e+00  9.8888493405828171e-01  1.1126842953765788e+00  9.9999870881208808e-01  9.9999999999733036e-01  9.9997777466441606e-01  9.9999436231082173e-01  9.9999947747530471e-01  1.0000016064066501e+00  1.0581974150387585e+00  9.7000235964261494e-01  9.9999947692834013e-01  9.9999999999940314e-01  9.9999947733775807e-01  9.9999947754878415e-01  9.9999947733277106e-01  9.9999999999888745e-01  1.2405192687625612e+00  1.0000000142579566e+00  9.9999993130279918e-01  1.0000000421179476e+00  9.9999998535995471e-01  9.9999999980067000e-01  9.9999999780472160e-01  9.9999947632570518e-01  9.9997252099710143e-01  1.0000000000000944e+00  9.9999471191849243e-01  9.9999947715927984e-01  9.9999947741471884e-01  9.9999947742829465e-01  9.9999947714779447e-01  9.9693664974877194e-01  9.9981796853646487e-01  9.9828707615354517e-01  9.9999947751608964e-01  1.0000050307763788e+00  1.0000359702331458e+00  1.0000147722923072e+00  9.9999999995556577e-01  1.0020692126968875e+00  9.9999947689522461e-01  9.9999947708715198e-01  1.0064547095880503e+00  1.0009747028691127e+00  9.9999947758423824e-01  9.9999947737050288e-01  1.0000000000256914e+00  1.0000000000005287e+00  9.9999999999889477e-01  1.0000000000014742e+00  1.0000000000016629e+00  9.9999999999315303e-01  1.0000400832716319e+00  1.0000000008691392e+00  1.0000000012434376e+00  1.0000000001958136e+00  1.1262304472838829e+00  1.1326351151183789e+00  9.9999948067710143e-01  1.0000000000018894e+00  1.0000000000023614e+00  9.9999999985121579e-01  1.0000000000046403e+00  9.9999949119488651e-01  1.0000100673835708e+00  9.9694419762564856e-01  1.0000156313636959e+00  1.0000953284369354e+00  9.9257040257076956e-01  1.0000000000031073e+00  9.9999947762981944e-01  9.9999947765592445e-01  9.9999947764250197e-01  9.9999947739122352e-01  1.0000013017531069e+00  9.9999922377744344e-01  1.0001581251222713e+00  9.9999999424295816e-01  9.9999947729568539e-01  9.9997506159593585e-01  9.9999947557080926e-01  9.9999947422392010e-01  1.0003330566297775e+00  1.0001827030598041e+00  1.0000258599704821e+00  9.9999947331544914e-01  1.0000000000027716e+00  9.9999999999860500e-01  9.9999947865920069e-01  9.9983559983054970e-01  1.0000000000080569e+00  9.9999999999560796e-01  9.9999947737775874e-01  9.9999999522024074e-01  9.9996585612307132e-01  9.9999947843270454e-01  9.9999999998807743e-01  1.0000000000035825e+00  1.0000000000042630e+00  9.9999999995947708e-01  1.0000000027664420e+00  1.0000000059961791e+00  9.9999999984149868e-01  9.9999947737606032e-01  9.9999950103598712e-01  9.9999984013674970e-01  9.9999968270933737e-01  9.9999947761757269e-01  9.9999947731854444e-01  1.0000000000003288e+00  1.0000016524911897e+00  1.0000003966248259e+00  9.9999947739757178e-01  9.9999947722178040e-01  9.9999947739501849e-01  1.0768679250307738e+00  1.0000000024185580e+00  9.9999947709126746e-01  9.9999947729412053e-01  9.9999947717070492e-01  9.9999947756896035e-01  9.9999947432494973e-01  9.9999947735087258e-01  9.9998571924161028e-01  1.0000037592855362e+00  9.9999947048796312e-01  9.9999947044109538e-01  9.9997335957046596e-01  9.9997061405062804e-01  9.9999947505878084e-01  9.9998142765899389e-01  1.0000019823794586e+00  1.0000007886839455e+00  1.0000012692049725e+00  9.9999947672992007e-01  9.9999947748896578e-01  9.9999947768079289e-01  9.9999947724134408e-01  9.9999933057556556e-01  9.9627306794462378e-01  9.9999947669375255e-01  1.0049249802367264e+00  9.9999947763616992e-01  2.0898384425109238e+00  1.0000097683922258e+00  9.9999999999584144e-01  1.0000000025656366e+00  9.9212449345173359e-01  9.9999947761821972e-01  9.9999947736134176e-01  1.1837935377526825e+00  8.6255262689320633e-01  9.9999947730868888e-01  9.9999948142288531e-01  9.9999118915704210e-01  9.9892029904058133e-01  9.9999947816735579e-01  9.9999946170420140e-01  9.9999938705830216e-01  9.9999953504088712e-01  1.0427565013286919e+00  9.9998816983932159e-01  9.9999999850937638e-01  1.7128221389698632e+00  1.0166929502601596e+00  9.9999976576136684e-01  1.0000255247470100e+00  8.7827299825902838e-01  8.7966794479744459e-01  1.0000000002888345e+00  1.0000000260746680e+00  1.0119769667213756e+00  1.4199829257836845e+00  9.9999890510284239e-01  9.9998570273241838e-01  1.0000000003460920e+00  9.9999999999937128e-01  1.0000000000045797e+00  9.9968062733612850e-01  9.9999946816213969e-01  1.3897443704366585e+00  9.2351379240247056e-01  1.0112064653163182e+00  9.9999947724494864e-01  1.0242705344199443e+00  1.0000000000082760e+00  9.9999999999869726e-01  9.9999947693928959e-01  9.9999999999853395e-01  9.9999947753670249e-01  9.9999999994257327e-01  9.9999783260109021e-01  9.9999705465606814e-01  9.9999947733053174e-01  9.9999948262340987e-01  1.0000000004429901e+00  1.0000000000014031e+00  1.0491662756886531e+00  1.0882961350295874e+00  9.9999998088149999e-01  1.0000000000065057e+00  9.9999947763358343e-01  9.9999947735299421e-01  9.9986033964800847e-01  9.9999947740557371e-01  1.0003358983159141e+00  1.0001010566357109e+00  9.9999947752383000e-01  9.9999947774632580e-01  9.9993296117232866e-01  9.9997916886816984e-01  9.9999947902823050e-01  1.0070809412758881e+00  1.0271345646382757e+00  9.9999948019263485e-01  9.9999491918238237e-01  9.9999866027634765e-01  9.9999948692711060e-01  9.9999947718828985e-01  9.9999950138414162e-01  9.9999956593171280e-01  1.0000000000036109e+00  1.0000000000023503e+00  1.0000000213695175e+00  1.0000000108638345e+00  1.0000000049553899e+00  9.9999981077535705e-01  9.9995523422118160e-01  9.9998773993684753e-01  9.9996081457544650e-01  9.9999999999950340e-01  9.9999999941505491e-01  1.0000000001500062e+00  9.9928148689741803e-01  1.0000000000051592e+00  9.9999947800108369e-01  9.9999947835196679e-01  1.0138276571277471e+00  9.9973274267404022e-01  9.9999947795759547e-01  1.0050222522235124e+00  1.0061261473932710e+00  9.9999947747750972e-01  9.9999605592170981e-01  9.9999948839984942e-01  9.9999947779008846e-01  9.8250595395440166e-01  9.4282583327301839e-01  1.0001098837856957e+00  1.0164631328366058e+00  9.9999999999962319e-01  9.9999947734818673e-01  9.9999947754578933e-01  9.9999947758454788e-01  1.0000058682882220e+00  1.0005962017479804e+00  9.9971068661838502e-01  9.9999947913722032e-01  9.9998408409119000e-01  9.9999947733216554e-01  9.9999947749811369e-01  8.5040611308003633e-01  9.9999999999993483e-01  9.9999947716444781e-01  1.1869914752125741e+00  1.1829169878918444e+00  9.9999935502443227e-01  1.0359954440038512e+00  9.9999947599093575e-01  1.0011816616506699e+00  9.9999120242811179e-01  1.0000000000294293e+00  1.0000000000067417e+00  1.0000000000025364e+00  9.9999947725700866e-01  1.0286116600233219e+00  9.9999947733698480e-01  9.9999993698192624e-01  9.9999849456340129e-01  9.9999947065414951e-01  9.9998727428696954e-01  1.0497677061732851e+00  1.0000091065927474e+00  9.9999950406179328e-01  9.9999999999788525e-01  9.9999979218382462e-01  1.0000009393681284e+00  9.9999935801023587e-01  9.9999964953013931e-01  1.0000000000949889e+00  9.9999947586564353e-01  9.3871266854492952e-01  9.9999999999997902e-01  9.9999986378992223e-01  9.9999947740408335e-01  9.9999355145795144e-01  1.0000219468179186e+00  1.0000000049505016e+00  9.9819331614466245e-01  1.0000000000772842e+00  9.9999947750519191e-01  1.0000000000034306e+00  9.9999947746580287e-01  9.7680820444804550e-01  9.9999947764283248e-01  1.0000000009051437e+00  9.9999947782295351e-01  9.9999938341010519e-01  9.9999986725983425e-01  1.0000388302933765e+00  9.9275404629306452e-01  1.0000027153169275e+00  1.0000000000150426e+00  1.0139752134473068e+00  9.9999999646209348e-01  1.0005357513565460e+00  1.0441030143997976e+00  1.0000187561222236e+00  9.8462972812363991e-01  9.8076389