<?xml version="1.0"?>
<VTKFile type="UnstructuredGrid"  version="0.1"  >
<UnstructuredGrid>
<Piece  NumberOfPoints="3160" NumberOfCells="5316">
<Points>
<DataArray  type="Float64"  NumberOfComponents="3"  format="ascii">1.25 0 0  1.249623523370255 0.03067653565364036 0  1.248494320256466 0.06133459290927252 0  1.246613070848363 0.09195570449958429 0  1.243980908340246 0.1225214254119508 0  1.240599418248387 0.1530133439990203 0  1.236470637455976 0.1834130930692022 0  1.231597052986177 0.2137023609503765 0  1.225981600504038 0.2438629025201603 0  1.219627662548161 0.2738765501960873 0  1.21253906649318 0.3037252248790798 0  1.2047200822443 0.333390946843623 0  1.196175419665261 0.3628558465680779 0  1.186910225741296 0.3921021754986144 0  1.176930081478776 0.4211123167402751 0  1.166240998543424 0.4498687956687352 0  1.154849415639108 0.4783542904563622 0  1.142762194629413 0.5065516425062373 0  1.129986616404304 0.5344438667878526 0  1.116530376494394 0.5620141620682582 0  1.102401580435444 0.5892459210324971 0  1.087608738885889 0.61612274028723 0  1.07216076250034 0.642628430241527 0  1.056066956562134 0.6687470248588714 0  1.039337015378182 0.6944627912745027 0  1.02198101643948 0.7197602392723067 0  1.004009414350806 0.7446241306155417 0  0.9854330345332579 0.7690394882257835 0  0.9662630667034212 0.7929916052045569 0  0.9465110581331058 0.8164660536922209 0  0.9261889066936989 0.8394486935587729 0  0.9053088536893338 0.8619256809213336 0  0.8838834764831844 0.8838834764831843 0  0.8619256809213337 0.9053088536893337 0  0.8394486935587729 0.9261889066936989 0  0.8164660536922209 0.9465110581331055 0  0.7929916052045569 0.9662630667034212 0  0.7690394882257835 0.9854330345332578 0  0.7446241306155419 1.004009414350806 0  0.7197602392723067 1.02198101643948 0  0.6944627912745028 1.039337015378182 0  0.6687470248588716 1.056066956562134 0  0.642628430241527 1.07216076250034 0  0.6161227402872301 1.087608738885889 0  0.5892459210324973 1.102401580435444 0  0.5620141620682583 1.116530376494394 0  0.5344438667878527 1.129986616404304 0  0.5065516425062373 1.142762194629413 0  0.4783542904563623 1.154849415639108 0  0.4498687956687353 1.166240998543424 0  0.4211123167402751 1.176930081478776 0  0.3921021754986145 1.186910225741296 0  0.3628558465680779 1.196175419665261 0  0.333390946843623 1.2047200822443 0  0.30372522487908 1.21253906649318 0  0.2738765501960872 1.219627662548161 0  0.2438629025201604 1.225981600504038 0  0.2137023609503767 1.231597052986177 0  0.1834130930692022 1.236470637455976 0  0.1530133439990203 1.240599418248387 0  0.122521425411951 1.243980908340246 0  0.09195570449958432 1.246613070848363 0  0.06133459290927266 1.248494320256466 0  0.03067653565364033 1.249623523370255 0  7.654042494670958e-17 1.25 0  -0.03067653565364018 1.249623523370255 0  -0.06133459290927251 1.248494320256466 0  -0.09195570449958416 1.246613070848363 0  -0.1225214254119508 1.243980908340246 0  -0.1530133439990202 1.240599418248387 0  -0.1834130930692021 1.236470637455976 0  -0.2137023609503766 1.231597052986177 0  -0.2438629025201602 1.225981600504038 0  -0.2738765501960871 1.219627662548161 0  -0.3037252248790798 1.21253906649318 0  -0.3333909468436229 1.2047200822443 0  -0.3628558465680777 1.196175419665261 0  -0.3921021754986143 1.186910225741296 0  -0.4211123167402749 1.176930081478776 0  -0.4498687956687352 1.166240998543424 0  -0.4783542904563621 1.154849415639108 0  -0.5065516425062372 1.142762194629413 0  -0.5344438667878524 1.129986616404304 0  -0.5620141620682584 1.116530376494394 0  -0.5892459210324972 1.102401580435444 0  -0.61612274028723 1.087608738885889 0  -0.642628430241527 1.07216076250034 0  -0.6687470248588713 1.056066956562134 0  -0.6944627912745025 1.039337015378182 0  -0.7197602392723067 1.02198101643948 0  -0.7446241306155417 1.004009414350806 0  -0.7690394882257834 0.9854330345332579 0  -0.7929916052045567 0.9662630667034213 0  -0.8164660536922207 0.9465110581331059 0  -0.8394486935587731 0.9261889066936988 0  -0.8619256809213337 0.9053088536893337 0  -0.8838834764831843 0.8838834764831844 0  -0.9053088536893334 0.8619256809213338 0  -0.9261889066936986 0.8394486935587732 0  -0.9465110581331058 0.8164660536922208 0  -0.9662630667034212 0.7929916052045569 0  -0.9854330345332578 0.7690394882257836 0  -1.004009414350806 0.7446241306155419 0  -1.02198101643948 0.7197602392723068 0  -1.039337015378182 0.6944627912745027 0  -1.056066956562134 0.6687470248588714 0  -1.07216076250034 0.6426284302415273 0  -1.087608738885889 0.6161227402872302 0  -1.102401580435444 0.5892459210324973 0  -1.116530376494394 0.5620141620682586 0  -1.129986616404304 0.5344438667878525 0  -1.142762194629413 0.5065516425062374 0  -1.154849415639108 0.4783542904563624 0  -1.166240998543424 0.4498687956687354 0  -1.176930081478776 0.4211123167402754 0  -1.186910225741296 0.3921021754986143 0  -1.196175419665261 0.362855846568078 0  -1.2047200822443 0.3333909468436231 0  -1.21253906649318 0.3037252248790801 0  -1.219627662548161 0.2738765501960876 0  -1.225981600504038 0.2438629025201608 0  -1.231597052986177 0.2137023609503765 0  -1.236470637455976 0.1834130930692023 0  -1.240599418248387 0.1530133439990204 0  -1.243980908340246 0.122521425411951 0  -1.246613070848363 0.09195570449958466 0  -1.248494320256466 0.06133459290927246 0  -1.249623523370255 0.03067653565364041 0  -1.25 1.530808498934192e-16 0  -1.249623523370255 -0.0306765356536401 0  -1.248494320256466 -0.06133459290927215 0  -1.246613070848363 -0.09195570449958437 0  -1.243980908340246 -0.1225214254119507 0  -1.240599418248387 -0.1530133439990201 0  -1.236470637455976 -0.183413093069202 0  -1.231597052986177 -0.2137023609503762 0  -1.225981600504038 -0.2438629025201605 0  -1.219627662548161 -0.2738765501960873 0  -1.21253906649318 -0.3037252248790798 0  -1.2047200822443 -0.3333909468436228 0  -1.196175419665261 -0.3628558465680776 0  -1.186910225741296 -0.392102175498614 0  -1.176930081478776 -0.4211123167402752 0  -1.166240998543424 -0.4498687956687352 0  -1.154849415639108 -0.4783542904563621 0  -1.142762194629413 -0.5065516425062371 0  -1.129986616404304 -0.5344438667878523 0  -1.116530376494394 -0.5620141620682583 0  -1.102401580435444 -0.5892459210324971 0  -1.087608738885889 -0.6161227402872299 0  -1.07216076250034 -0.6426284302415269 0  -1.056066956562134 -0.6687470248588712 0  -1.039337015378182 -0.6944627912745025 0  -1.02198101643948 -0.7197602392723067 0  -1.004009414350806 -0.7446241306155416 0  -0.9854330345332579 -0.7690394882257834 0  -0.9662630667034213 -0.7929916052045566 0  -0.946511058133106 -0.8164660536922207 0  -0.9261889066936989 -0.8394486935587731 0  -0.9053088536893338 -0.8619256809213336 0  -0.8838834764831847 -0.8838834764831843 0  -0.8619256809213338 -0.9053088536893334 0  -0.8394486935587733 -0.9261889066936986 0  -0.8164660536922214 -0.9465110581331053 0  -0.7929916052045574 -0.9662630667034209 0  -0.7690394882257841 -0.9854330345332574 0  -0.7446241306155414 -1.004009414350806 0  -0.7197602392723066 -1.02198101643948 0  -0.6944627912745027 -1.039337015378182 0  -0.6687470248588716 -1.056066956562134 0  -0.6426284302415273 -1.07216076250034 0  -0.6161227402872302 -1.087608738885889 0  -0.5892459210324973 -1.102401580435444 0  -0.5620141620682586 -1.116530376494394 0  -0.5344438667878531 -1.129986616404304 0  -0.506551642506238 -1.142762194629413 0  -0.4783542904563629 -1.154849415639108 0  -0.4498687956687349 -1.166240998543424 0  -0.4211123167402749 -1.176930081478776 0  -0.3921021754986143 -1.186910225741296 0  -0.3628558465680781 -1.196175419665261 0  -0.3333909468436231 -1.2047200822443 0  -0.3037252248790802 -1.21253906649318 0  -0.2738765501960876 -1.219627662548161 0  -0.2438629025201608 -1.225981600504038 0  -0.2137023609503771 -1.231597052986176 0  -0.1834130930692029 -1.236470637455976 0  -0.1530133439990199 -1.240599418248387 0  -0.1225214254119506 -1.243980908340246 0  -0.09195570449958419 -1.246613070848363 0  -0.06133459290927254 -1.248494320256466 0  -0.03067653565364049 -1.249623523370255 0  -2.296212748401287e-16 -1.25 0  0.03067653565364003 -1.249623523370255 0  0.06133459290927207 -1.248494320256466 0  0.09195570449958373 -1.246613070848363 0  0.1225214254119501 -1.243980908340246 0  0.1530133439990195 -1.240599418248387 0  0.1834130930692024 -1.236470637455976 0  0.2137023609503766 -1.231597052986177 0  0.2438629025201604 -1.225981600504038 0  0.2738765501960872 -1.219627662548161 0  0.3037252248790797 -1.21253906649318 0  0.3333909468436227 -1.2047200822443 0  0.3628558465680776 -1.196175419665261 0  0.3921021754986139 -1.186910225741296 0  0.4211123167402745 -1.176930081478776 0  0.4498687956687345 -1.166240998543424 0  0.4783542904563625 -1.154849415639108 0  0.5065516425062375 -1.142762194629413 0  0.5344438667878527 -1.129986616404304 0  0.5620141620682583 -1.116530376494394 0  0.589245921032497 -1.102401580435444 0  0.6161227402872298 -1.087608738885889 0  0.6426284302415269 -1.07216076250034 0  0.6687470248588712 -1.056066956562134 0  0.6944627912745023 -1.039337015378182 0  0.7197602392723061 -1.02198101643948 0  0.7446241306155411 -1.004009414350806 0  0.7690394882257838 -0.9854330345332576 0  0.792991605204557 -0.9662630667034211 0  0.8164660536922209 -0.9465110581331058 0  0.8394486935587729 -0.9261889066936989 0  0.8619256809213336 -0.9053088536893338 0  0.8838834764831842 -0.8838834764831847 0  0.9053088536893333 -0.8619256809213339 0  0.9261889066936986 -0.8394486935587733 0  0.9465110581331053 -0.8164660536922214 0  0.9662630667034209 -0.7929916052045574 0  0.9854330345332574 -0.7690394882257843 0  1.004009414350806 -0.7446241306155416 0  1.02198101643948 -0.7197602392723066 0  1.039337015378182 -0.6944627912745027 0  1.056066956562134 -0.6687470248588716 0  1.07216076250034 -0.6426284302415274 0  1.087608738885889 -0.6161227402872304 0  1.102401580435443 -0.5892459210324974 0  1.116530376494394 -0.5620141620682587 0  1.129986616404304 -0.5344438667878532 0  1.142762194629413 -0.50655164250623
[...]
<PointData  Scalars="f_16179"> 
<DataArray  type="Float64"  Name="f_16179"  format="ascii">-3.7739255262476608e-05  -3.6553918435833225e-05  -4.1809582264838056e-05  -3.8940148865507367e-05  -3.8828257879044028e-05  -3.8221132343237293e-05  -3.9637163626279396e-05  -3.7727635346923536e-05  -3.4934900743382552e-05  -3.3537878907052858e-05  -3.7795027316403364e-05  -3.2647561730261577e-05  -3.3352544320251397e-05  -3.5464287189162193e-05  -3.2468184857722820e-05  -2.8339207574903786e-05  -2.8093021910879239e-05  -2.9102730665628255e-05  -2.7537310768991698e-05  -2.4518625509625560e-05  -2.4278036225290071e-05  -1.9455901581463518e-05  -2.1342364172281794e-05  -1.6748166503059414e-05  -1.6512232897582588e-05  -1.3382781179363621e-05  -1.3812611899406716e-05  -1.1796092467333410e-05  -8.6161377683224326e-06  -6.7177815720776288e-06  -4.6591442238504270e-06  -2.3624014882956733e-06  1.1661258767548814e-07  3.0812629922604440e-06  3.7127023529677568e-06  7.7541766906385495e-06  7.8033107044738762e-06  1.3221625931436617e-05  1.3254504974949936e-05  1.3958713203855656e-05  1.8105206233469948e-05  2.3247618232913613e-05  2.2410662961211760e-05  2.3758881065016730e-05  3.0559254921751524e-05  2.9800867059200343e-05  3.1817634669030618e-05  3.7907630481584964e-05  4.2328943318855536e-05  4.1143036666629953e-05  4.1764841670577000e-05  4.7057273006928621e-05  4.7695980680683155e-05  5.5293509782412858e-05  5.8676112671433590e-05  5.4786600244947056e-05  6.6068882830427731e-05  6.2601490507327957e-05  6.3987170936686852e-05  7.3053263693903756e-05  6.8889392643493522e-05  6.9379296834002759e-05  7.6816646736218363e-05  6.6438751642182553e-05  6.9926615680455668e-05  8.2920561049818135e-05  7.8605381791012715e-05  8.8414391313571225e-05  7.5827140346550046e-05  9.2534541932117365e-05  8.7383241708723186e-05  9.4657289452715321e-05  8.4953080241310569e-05  8.5578531369042611e-05  1.0024539580405914e-04  7.8921604580323114e-05  9.5379429089094737e-05  8.7704740002568174e-05  8.4074560845625782e-05  8.6873319204373742e-05  9.2953695247520527e-05  8.6181005933887110e-05  8.7974416827597105e-05  8.7057924699252137e-05  7.9279768186410680e-05  8.4845533800073796e-05  7.3319591886151575e-05  7.0380462832654052e-05  7.4449108395235690e-05  6.2115176657458163e-05  5.6199065581731345e-05  4.9492465507487829e-05  3.8872732488451265e-05  2.8151745508400688e-05  2.4145787455390093e-05  1.0441992217115087e-05  -2.4373764169353871e-06  -4.3973667104695114e-06  -1.3775726819319798e-05  -1.7784299867047064e-05  -2.2940474318350015e-05  -1.8970909601667258e-05  -9.2707454614113731e-06  5.9843517786979069e-06  2.3799227668799480e-05  5.9174581855454497e-05  9.8799306525601085e-05  1.6204773746516317e-04  2.3567100909960333e-04  3.3834104773480377e-04  4.3474463848753371e-04  5.8807503129700272e-04  7.5070432347006414e-04  8.8338913948946007e-04  1.0560871598463335e-03  1.2731815246487697e-03  1.5036672577821029e-03  1.7555298846212417e-03  1.9857810203185566e-03  2.2364962092210261e-03  2.5260306437293592e-03  2.7720894476416184e-03  3.0158760975724898e-03  3.2109060727591484e-03  3.4384073448740829e-03  3.5678590662441231e-03  3.6980462209245581e-03  3.7854202669390198e-03  3.7909734203300256e-03  3.7244498408927238e-03  3.6751735932516539e-03  3.5722052977484970e-03  3.3961455627270587e-03  3.2485179903332753e-03  2.9940680748068460e-03  2.7588110861534298e-03  2.5080900917372742e-03  2.2373988822603978e-03  2.0118242842347292e-03  1.7340323985976700e-03  1.4909630557607024e-03  1.2594295880065194e-03  1.0938565976743033e-03  9.2253331696449893e-04  7.2329508205305998e-04  5.8967567466798175e-04  4.2683944793615007e-04  3.3603177304112242e-04  2.5204481718479714e-04  1.5449951408093900e-04  9.9338072664668245e-05  5.5810869832588379e-05  2.6987881637379517e-05  6.8401005461735088e-06  -1.2542547748147212e-05  -1.8070500785901874e-05  -2.0137758408531889e-05  -1.9804241001218529e-05  -1.2453006907691076e-05  -2.0330878353757723e-06  1.8036462283799571e-06  7.8036434655113713e-06  2.0097714248943909e-05  3.2644664359861064e-05  3.8342477450514874e-05  4.7471900510966468e-05  5.5624908379331927e-05  6.4396258649077536e-05  6.8635035376042681e-05  7.2731185560402254e-05  7.7985849045224230e-05  7.9020218393845176e-05  8.3621042169954978e-05  8.4908640050929298e-05  8.3335127023601992e-05  9.1547913806103482e-05  8.8603142233018269e-05  8.6875300809770631e-05  8.9180147924294839e-05  9.4589281339685989e-05  8.7535732534176392e-05  8.4719629354112851e-05  9.5182799896452675e-05  7.6900863323147372e-05  9.2038645926082588e-05  9.3072816843980970e-05  7.9393005096336592e-05  9.1502003964960798e-05  8.1836589812008675e-05  8.7197834055942284e-05  7.2859174742684964e-05  8.3626517024392119e-05  7.9971160352121281e-05  7.4384916308438954e-05  7.4666794753478583e-05  7.3060643703376025e-05  6.8611828792599516e-05  6.8492289850134556e-05  6.0737986279917720e-05  5.5893109922169933e-05  5.7220305097334818e-05  5.8524846832461560e-05  5.8997249315308549e-05  5.0578180889162057e-05  4.8954204977951346e-05  5.3597515968700439e-05  4.2505463380167774e-05  4.6619722064805234e-05  4.1118043211660943e-05  3.5422249809017684e-05  3.4092930396469088e-05  3.6133437233064961e-05  3.2060798945069345e-05  2.7444537709947837e-05  2.3903476372150177e-05  2.2293790192293812e-05  1.7159758719594980e-05  1.9064228152488275e-05  1.3697456011034080e-05  9.8622354948026184e-06  1.1219096830854069e-05  6.2959949560128074e-06  4.9074609102786043e-06  2.5068220430478124e-06  5.6933294010900300e-08  -2.2161328973723778e-06  -5.0246029062962746e-06  -6.8790610467610882e-06  -9.5406732305128451e-06  -1.0814847943913127e-05  -1.1256501569583489e-05  -1.4712200885119117e-05  -1.7730729728990804e-05  -1.7814405994620009e-05  -2.0003290211703889e-05  -1.9950657437230067e-05  -2.4956591540970500e-05  -2.1612650884311644e-05  -2.4827302353723911e-05  -2.4788982195555323e-05  -3.0359814659717712e-05  -2.8334882081118857e-05  -2.9040900502308754e-05  -3.3833161192205166e-05  -3.4213010900632657e-05  -3.3285968781167203e-05  -3.1275423587160141e-05  -3.5122341054165012e-05  -3.3886929820898588e-05  -3.7457236000992034e-05  -3.8882712226628767e-05  -3.3841113294269802e-05  -4.0127733987637234e-05  -3.7810037855024913e-05  -4.1033463344178643e-05  -3.9784307353516509e-05  9.0659491334347218e-03  8.8017367950625550e-03  8.9901448748111040e-03  8.9482874541480708e-03  8.9972375109507920e-03  8.9178120715337830e-03  8.5651422437390493e-03  8.7034919819955463e-03  8.5304152320061517e-03  8.4320171851924013e-03  8.1711980003031232e-03  7.9921239690988067e-03  7.8619887916888988e-03  7.4847065639348622e-03  7.2799015621718656e-03  6.9801391634173758e-03  6.5462855034196295e-03  6.4490838545357724e-03  6.1086685907496127e-03  5.9270008684019866e-03  5.5286276212060956e-03  5.0688149964592212e-03  4.8749893698674454e-03  4.4120765471859840e-03  3.8964007746601225e-03  3.3755794612592869e-03  3.0446199923069421e-03  2.6809277058451354e-03  2.2826100013172870e-03  1.8423290373489991e-03  1.3823210953995883e-03  9.3450106107603899e-04  4.2435209927121567e-04  8.2489506266321077e-05  -3.5950590521447627e-04  -7.3152744664696523e-04  -1.2550011335078640e-03  -1.7046509248717500e-03  -2.0534672490299870e-03  -2.5206115689031896e-03  -2.8709722007015234e-03  -3.3441547629033687e-03  -3.7478211442916512e-03  -4.1919466299776319e-03  -4.5447940801278544e-03  -4.8707550061249669e-03  -5.2144565202121218e-03  -5.5032811200559665e-03  -5.9092238917268086e-03  -6.2790764939095068e-03  -6.4280771547910540e-03  -6.8849545884717292e-03  -6.9792943395427633e-03  -7.4314843579337351e-03  -7.7962053095421459e-03  -7.9607783577686810e-03  -8.2439580514010961e-03  -8.4036229389208746e-03  -8.4581454986978125e-03  -8.6905612806754615e-03  -8.7787535117031072e-03  -8.9994101236954473e-03  -9.0627932975388872e-03  -9.1690321389239250e-03  -9.1420422544348720e-03  -9.3525239203539924e-03  -9.1320056546237271e-03  -9.0045633084884190e-03  -8.6795301632585590e-03  -8.5731147574469573e-03  -8.3125282155477234e-03  -8.1535686397997686e-03  -8.2086645069003369e-03  -8.1285819473645993e-03  -8.0063036661509150e-03  -7.9182145649116260e-03  -7.6276486031243759e-03  -7.3531584256683446e-03  -7.1566935416287831e-03  -6.9964907747895764e-03  -6.7818906880906015e-03  -6.4511468772830566e-03  -6.2344310421373669e-03  -5.8061220418693035e-03  -5.4544752442163167e-03  -5.1666614816604766e-03  -4.7998227459749394e-03  -4.3962216968795893e-03  -3.8696353893865583e-03  -3.6538540876247345e-03  -3.2042097802644403e-03  -2.8156196055685264e-03  -2.3575840832197482e-03  -1.9667661034782455e-03  -1.4238899430207535e-03  -9.4111325305550595e-04  -4.8791321148008781e-04  -1.0600485318379654e-05  4.2051378543837473e-04  8.5738252301092944e-04  1.2955458093935521e-03  1.7698476406985517e-03  2.2161173987591105e-03  2.6772036038762550e-03  3.0782791308355704e-03  3.4857800154110522e-03  3.9106113072473287e-03  4.4124069542036785e-03  4.7439256148595526e-03  5.1786435450138363e-03  5.5726840148892301e-03  5.9381686713291301e-03  6.1377914865331706e-03  6.3721579113519208e-03  6.6468777296483502e-03  6.9109553795041277e-03  7.1991228263289840e-03  7.3612829336754913e-03  7.5521367686275150e-03  7.7001028196410342e-03  7.7581104854776064e-03  7.8784004295510135e-03  8.0416519181675285e-03  8.0740689502870160e-03  8.1476047108399036e-03  8.1865344160807346e-03  8.1597864128538315e-03  8.2430075369892327e-03  8.2824082581933675e-03  8.2207459200735154e-03  8.1681216555408390e-03  8.1849522548551618e-03  8.1477739260309920e-03  8.1213500137766632e-03  8.0679072681330878e-03  8.0252426746803759e-03  8.0838151688233210e-03  7.9988151521525070e-03  7.8144617087297606e-03  7.6571252035066055e-03  7.5482205793051173e-03  7.3417108972838856e-03  7.1812730465397453e-03  6.9896080791153527e-03  6.7450468979154150e-03  6.4687806654863218e-03  6.1765148392105458e-03  5.8316591755172582e-03  5.6360765074962918e-03  5.2270209487941775e-03  4.8357395538112654e-03  4.4209131725431693e-03  3.9806313291622071e-03  3.5847943838874284e-03  3.2696332886435670e-03  2.8128153929685719e-03  2.3008059565532762e-03  1.8741960700463828e-03  1.4355623447444685e-03  9.6938534899678862e-04  5.3220307219678780e-04  8.6291320986785170e-05  -3.3765303370142087e-04  -8.0244921992145334e-04  -1.2623183336948774e-03  -1.7222334919799614e-03  -2.1709106187313390e-03  -2.5564377814209379e-03  -2.8111767001078943e-03  -3.2839637995077469e-03  -3.8595539732643831e-03  -4.3231963538037889e-03  -4.7112651353536554e-03  -4.9755634224213962e-03  -5.4278925982946041e-03  -5.6883924440438837e-03  -6.0549436288431869e-03  -6.3864718607679772e-03  -6.6422181047318942e-03  -6.9437916086189412e-03  -7.2187162126577230e-03  -7.3107529199194126e-03  -7.4241751580986573e-03  -7.8056646802530626e-03  -8.0017869757036033e-03  -8.0449002623433630e-03  -8.2045614446012282e-03  -8.3220374904336165e-03  -8.4976326423184378e-03  -8.5132687717179439e-03  -8.5302184455523858e-03  -8.9128197249557558e-03  -8.8106056746576396e-03  -8.9655631914708697e-03  -9.1314433511191385e-03  -9.2256326109306196e-03  -9.1383649195660235e-03  -9.0292172495372424e-03  -8.8591227231831146e-03  -8.7713096941685036e-03  -8.5745531762502335e-03  -8.3800681164407816e-03  -8.0967430123224521e-03  -8.0504826365092562e-03  -7.9197151998585211e-03  -7.6418126482700023e-03  -7.3935161555411045e-03  -6.8864752592668775e-03  -6.6200132243478234e-03  -6.3139095884208653e-03  -6.0191756712477586e-03  -5.8165987938528143e-03  -5.4616296175383963e-03  -4.9570406521981195e-03  -4.5601074054861281e-03  -4.1314887321738710e-03  -3.8588417622509512e-03  -3.4709613456088344e-03  -2.9557989460982214e-03  -2.5780224670685832e-03  -2.1460560497488282e-03  -1.7614821907559154e-03  -1.3116928296741284e-03  -9.1456371613922547e-04  -5.0008326020475847e-04  -3.0039346346770337e-05  3.7800268989406663e-04  7.5382847482202611e-04  1.2299058364190455e-03  1.6528672083768493e-03  2.0678499191627508e-03  2.4426424708430118e-03  2.9895570151083598e-03  3.5332200790398924e-03  3.8083884589514842e-03  4.2065981602883275e-03  4.5317299498674763e-03  4.9622590792379965e-03  5.3714720811230540e-03  5.7228321736621131e-03  5.9661999173247745e-03  6.4171113256680668e-03  6.7508367223453134e-03  6.9585306717702498e-03  7.1857244440273133e-03  7.4752657689509915e-03  7.5396592975990372e-03  7.7617570351802209e-03  8.1296809408332397e-03  8.2976615058828109e-03  8.3201196473381370e-03  8.5674559009264479e-03  8.7866346905874602e-03  8.9205245238053957e-03  8.8757239046417611e-03  9.0286429249825211e-03  -2.3351356832508249e-06  -2.2440671282257529e-06  -2.0312292378271596e-06  -2.2114751167569576e-06  -1.5475022925385349e-06  -1.9844253307553672e-06  -1.7761826872941184e-06  -1.0292685958110888e-06  -1.3925907980758006e-06  -8.5594131057763006e-07  -3.0717321621909533e-07  2.4354898342248256e-07  3.4892693672365322e-07  -3.0730602177031203e-09  -1.4423922109948750e-06  -5.7977561518759681e-06  -5.3305443790806657e-06  -1.4347443042045913e-05  -2.0280808703094516e-06  -1.9501460023699497e-05  -1.8893287605614581e-06  -1.7766353015126696e-06  -1.7362924855247341e-06  1.0913190068032806e-05  7.9107123689690052e-06  9.3754459986770049e-06  1.0522787687839596e-05  -2.7836359926940346e-05  -1.4592099542575180e-06  -1.3515581746809228e-06  1.8569739711500540e-05  -3.6743380432969947e-05  1.0016585634007619e-05  -1.4162056039205380e-06  -1.2807226926938479e-06  1.0888811046552583e-05  8.9171650259801107e-06  -2.0531905915766130e-06  -4.7239237812108764e-05  -2.0170881740180615e-06  -1.8938810404817987e-06  5.0451141828119949e-05  -5.5474366485944627e-07  -6.4324675443701185e-07  -1.8092928839662248e-06  3.2792185875932904e-07  -1.4473977798359527e-06  -4.6870323329490762e-05  -1.9315416733857701e-06  -1.4296661472526995e-06  -1.4322711440848646e-06  -6.4768129355130639e-05  2.5293083815042633e-07  -7.2436431004256396e-08  3.4015089359592898e-05  2.1533122638118629e-05  -9.3241260348936132e-05  -1.0858455199384633e-06  -1.0677325633157402e-06  1.8863650122256850e-05  -2.6619709563565928e-05  1.6930995577227320e-05  2.1534334644661287e-05  -2.3855319832133496e-05  2.1085004030961876e-05  2.8666084885513684e-05  1.7060344426133940e-06  1.2903091673463629e-06  -1.1025341193954265e-04  2.4338164715627480e-08  -1.2661172331771933e-04  6.1361260641595367e-05  -6.0126096287045320e-05  -5.3377343729550384e-05  -2.6837330898337010e-07  -2.4922921703830080e-05  -1.4505280643494988e-04  -1.6153525828954796e-06  -1.9900643975135804e-06  1.6399694003437511e-06  2.9045467309645713e-06  2.7924096822378730e-06  -8.2409302472529055e-05  1.2070944426426329e-06  -2.1992723777766965e-06  -1.6987132870804918e-04  -1.7844039284390317e-04  -1.3567755296549233e-04  -1.4947640372960500e-06  4.4820479639825329e-06  -3.2569415975951329e-05  -1.8331501344754826e-06  -1.1189571706943307e-04  -2.0105293406396240e-06  -1.9847584534906705e-04  2.7138625882192356e-06  2.5328247051887967e-06  -1.6834479042295755e-06  4.6577692528766956e-06  -1.4440928993621886e-06  -2.0183490261957280e-04  -2.6590894397028167e-06  -2.2532853556204957e-06  -2.2014205903041892e-06  -2.3440472872122780e-04  -2.0216417491292271e-06  -2.0375299278876463e-06  -2.4855218581054574e-06  -2.5090195789120498e-04  -1.9950561565525255e-06  -1.0231973132686730e-06  -2.1378119201417295e-06  -2.4952498827239745e-06  -2.4599040636203215e-04  -2.4371573503027052e-04  -1.7002881634586148e-06  -1.8836812084335058e-06  4.0065660044094699e-06  -1.6261362145282354e-06  -3.5240681709844700e-04  -4.0735448841770885e-04  5.5966885754450124e-06  -2.1085742089692006e-06  3.9422823686427195e-04  -2.6252546696345910e-06  -1.7109540553558280e-04  -2.4944027361276132e-04  -2.2191185696778940e-06  -1.7204875561438949e-06  -6.0306918127042703e-07  4.5991743639180855e-04  8.2493135015644997e-06  -1.7531956922346466e-06  4.7190302352985670e-06  4.3174326591799563e-04  -4.7869161546313955e-04  4.0070215181974163e-04  3.9448627892220715e-04  -2.5303528206291678e-04  5.9393681169762370e-06  -1.6533403364523625e-06  -1.7898905261408859e-06  3.4276222715274093e-04  -1.0735374703913967e-06  3.6542908410080278e-04  3.4169928226043231e-04  -2.0133836482175520e-06  -2.0302214375874231e-06  -2.1431690690318006e-06  -4.4514036232535734e-07  -1.1982189968369529e-06  -1.5552739344163627e-06  -1.8736201041526824e-06  -1.0904743235889233e-06  -1.5965542076277527e-06  -1.8595261143716380e-06  3.7433326296760805e-04  -1.4904094911163006e-06  -1.0586623421236172e-06  -1.5312510196572384e-06  -1.5830013031690046e-06  -4.9748317598280995e-07  1.1765052326531690e-07  -3.7112175234657184e-04  -8.8324274811024857e-07  -2.9804389949272924e-06  2.7192455417275819e-04  3.5583119847063086e-04  -1.6390319138904812e-06  -3.0218290129731128e-06  -4.5221955980009562e-07  -1.9336676640900365e-06  -2.2134518262215073e-07  5.1256693676509561e-06  -2.3040194354336831e-04  -6.0071341460098408e-04  -8.5567271882927612e-07  -1.6479585938571952e-06  -1.2824230049854508e-06  2.7800846275395899e-05  -1.1236119627736599e-06  -1.3868775445933628e-06  1.0540624352641248e-06  1.9733996457449966e-04  1.9870511743235423e-04  -1.4058294858314701e-06  -1.1495694098407516e-06  1.3407149337039772e-04  2.1506013832187803e-04  -6.6069896691801249e-04  -2.1584682567251789e-04  3.4168243574707239e-06  -9.3137892861224875e-07  3.5950831378143527e-04  -2.1994335708703442e-06  -9.7071593245757785e-07  -2.2435153648151349e-07  -5.2816361623154622e-07  -1.3267641113832992e-06  5.8570546089164972e-06  -2.0377220034525920e-06  -3.8585662918576094e-06  5.5148856424310533e-05  -2.1944328036439779e-04  -1.3934417743389621e-07  -1.2807705769646795e-06  -1.7320969277018236e-06  -1.0343490522509301e-07  -1.9771847990931498e-06  -9.1450464308030740e-07  -6.3647783543664975e-04  -6.3120738709007395e-05  -1.3511358439238918e-06  3.4105870373124017e-07  -1.8080671062420236e-06  6.6875385319240291e-06  -2.2758819358196000e-06  -9.5319004358469152e-07  -8.8877198006042063e-07  -1.7464489253082120e-04  1.3354546487057779e-06  9.8882007667017876e-07  -1.6099253588894930e-07  -2.8462630959401585e-06  -1.5810624458896425e-06  -1.8043987744178619e-06  -1.7360926196246574e-06  5.5329495145631485e-04  -8.3441607636173334e-07  -5.6046564241608865e-04  5.5926096133922598e-06  -7.4203262665923896e-06  7.4365321790719591e-04  -1.9608590616289611e-06  -2.5926249395022610e-08  -3.4013002442762903e-07  -6.7783316903418188e-06  -8.7495032043958774e-07  8.6040327518451822e-06  -1.4255577746466396e-04  -5.7625731051275456e-04  -3.4148338584495429e-06  4.4475495815789938e-04  -1.5161574130310221e-06  9.2980343187988557e-04  6.3045048231070392e-04  -7.9180671334452455e-04  -1.9422719776241226e-06  -8.2608025840565558e-04  3.2541919549131813e-07  -3.0629690046588080e-04  -7.5789501897581430e-06  -1.1708460670094493e-04  -1.5215508478847098e-07  -1.8079978688768731e-06  4.9348811957358277e-07  -1.4982936350468132e-06  1.5639764436415002e-06  7.1233713683206680e-07  -8.9657854327762361e-04  2.0956490131531225e-06  1.7740030486410853e-06  3.2954225451561134e-06  4.7222371745669085e-07  -8.0092617107823695e-05  -1.7196491763151777e-06  -6.0774229550941358e-04  -1.1127711036546678e-05  -3.5571830064598471e-04  -2.7945062404147658e-04  -2.3732246081385123e-04  -6.3750283737545576e-06  -3.1742631796915298e-06  -2.5009047711598556e-06  -2.5934078022892432e-04  -2.2747894490090272e-06  -2.6715473707793783e-05  -1.2513431516352225e-06  -3.9353594482072619e-04  -8.3757633375421390e-06  -6.0836564113635900e-06  -8.4921487315316104e-07  -1.6682508547725093e-06  -4.9859477480100644e-04  -4.5961747077785632e-04  -2.2221940843439778e-06  -5.6292337529142923e-06  -2.2319499542640120e-05  1.3330987420276187e-05  1.3399348821381693e-05  -8.6325417937453011e-06  -6.0259027327180137e-07  -6.9370668106237218e-04  -2.5834585134986086e-06  -4.1449525252135162e-04  -1.2536394888419182e-06  -6.3461065453643002e-05  2.3406166163331285e-06  3.7799864675790217e-04  1.1907201638493612e-04  -