<?xml version="1.0"?>
<VTKFile type="UnstructuredGrid"  version="0.1"  >
<UnstructuredGrid>
<Piece  NumberOfPoints="3160" NumberOfCells="5316">
<Points>
<DataArray  type="Float64"  NumberOfComponents="3"  format="ascii">1.25 0 0  1.249623523370255 0.03067653565364036 0  1.248494320256466 0.06133459290927252 0  1.246613070848363 0.09195570449958429 0  1.243980908340246 0.1225214254119508 0  1.240599418248387 0.1530133439990203 0  1.236470637455976 0.1834130930692022 0  1.231597052986177 0.2137023609503765 0  1.225981600504038 0.2438629025201603 0  1.219627662548161 0.2738765501960873 0  1.21253906649318 0.3037252248790798 0  1.2047200822443 0.333390946843623 0  1.196175419665261 0.3628558465680779 0  1.186910225741296 0.3921021754986144 0  1.176930081478776 0.4211123167402751 0  1.166240998543424 0.4498687956687352 0  1.154849415639108 0.4783542904563622 0  1.142762194629413 0.5065516425062373 0  1.129986616404304 0.5344438667878526 0  1.116530376494394 0.5620141620682582 0  1.102401580435444 0.5892459210324971 0  1.087608738885889 0.61612274028723 0  1.07216076250034 0.642628430241527 0  1.056066956562134 0.6687470248588714 0  1.039337015378182 0.6944627912745027 0  1.02198101643948 0.7197602392723067 0  1.004009414350806 0.7446241306155417 0  0.9854330345332579 0.7690394882257835 0  0.9662630667034212 0.7929916052045569 0  0.9465110581331058 0.8164660536922209 0  0.9261889066936989 0.8394486935587729 0  0.9053088536893338 0.8619256809213336 0  0.8838834764831844 0.8838834764831843 0  0.8619256809213337 0.9053088536893337 0  0.8394486935587729 0.9261889066936989 0  0.8164660536922209 0.9465110581331055 0  0.7929916052045569 0.9662630667034212 0  0.7690394882257835 0.9854330345332578 0  0.7446241306155419 1.004009414350806 0  0.7197602392723067 1.02198101643948 0  0.6944627912745028 1.039337015378182 0  0.6687470248588716 1.056066956562134 0  0.642628430241527 1.07216076250034 0  0.6161227402872301 1.087608738885889 0  0.5892459210324973 1.102401580435444 0  0.5620141620682583 1.116530376494394 0  0.5344438667878527 1.129986616404304 0  0.5065516425062373 1.142762194629413 0  0.4783542904563623 1.154849415639108 0  0.4498687956687353 1.166240998543424 0  0.4211123167402751 1.176930081478776 0  0.3921021754986145 1.186910225741296 0  0.3628558465680779 1.196175419665261 0  0.333390946843623 1.2047200822443 0  0.30372522487908 1.21253906649318 0  0.2738765501960872 1.219627662548161 0  0.2438629025201604 1.225981600504038 0  0.2137023609503767 1.231597052986177 0  0.1834130930692022 1.236470637455976 0  0.1530133439990203 1.240599418248387 0  0.122521425411951 1.243980908340246 0  0.09195570449958432 1.246613070848363 0  0.06133459290927266 1.248494320256466 0  0.03067653565364033 1.249623523370255 0  7.654042494670958e-17 1.25 0  -0.03067653565364018 1.249623523370255 0  -0.06133459290927251 1.248494320256466 0  -0.09195570449958416 1.246613070848363 0  -0.1225214254119508 1.243980908340246 0  -0.1530133439990202 1.240599418248387 0  -0.1834130930692021 1.236470637455976 0  -0.2137023609503766 1.231597052986177 0  -0.2438629025201602 1.225981600504038 0  -0.2738765501960871 1.219627662548161 0  -0.3037252248790798 1.21253906649318 0  -0.3333909468436229 1.2047200822443 0  -0.3628558465680777 1.196175419665261 0  -0.3921021754986143 1.186910225741296 0  -0.4211123167402749 1.176930081478776 0  -0.4498687956687352 1.166240998543424 0  -0.4783542904563621 1.154849415639108 0  -0.5065516425062372 1.142762194629413 0  -0.5344438667878524 1.129986616404304 0  -0.5620141620682584 1.116530376494394 0  -0.5892459210324972 1.102401580435444 0  -0.61612274028723 1.087608738885889 0  -0.642628430241527 1.07216076250034 0  -0.6687470248588713 1.056066956562134 0  -0.6944627912745025 1.039337015378182 0  -0.7197602392723067 1.02198101643948 0  -0.7446241306155417 1.004009414350806 0  -0.7690394882257834 0.9854330345332579 0  -0.7929916052045567 0.9662630667034213 0  -0.8164660536922207 0.9465110581331059 0  -0.8394486935587731 0.9261889066936988 0  -0.8619256809213337 0.9053088536893337 0  -0.8838834764831843 0.8838834764831844 0  -0.9053088536893334 0.8619256809213338 0  -0.9261889066936986 0.8394486935587732 0  -0.9465110581331058 0.8164660536922208 0  -0.9662630667034212 0.7929916052045569 0  -0.9854330345332578 0.7690394882257836 0  -1.004009414350806 0.7446241306155419 0  -1.02198101643948 0.7197602392723068 0  -1.039337015378182 0.6944627912745027 0  -1.056066956562134 0.6687470248588714 0  -1.07216076250034 0.6426284302415273 0  -1.087608738885889 0.6161227402872302 0  -1.102401580435444 0.5892459210324973 0  -1.116530376494394 0.5620141620682586 0  -1.129986616404304 0.5344438667878525 0  -1.142762194629413 0.5065516425062374 0  -1.154849415639108 0.4783542904563624 0  -1.166240998543424 0.4498687956687354 0  -1.176930081478776 0.4211123167402754 0  -1.186910225741296 0.3921021754986143 0  -1.196175419665261 0.362855846568078 0  -1.2047200822443 0.3333909468436231 0  -1.21253906649318 0.3037252248790801 0  -1.219627662548161 0.2738765501960876 0  -1.225981600504038 0.2438629025201608 0  -1.231597052986177 0.2137023609503765 0  -1.236470637455976 0.1834130930692023 0  -1.240599418248387 0.1530133439990204 0  -1.243980908340246 0.122521425411951 0  -1.246613070848363 0.09195570449958466 0  -1.248494320256466 0.06133459290927246 0  -1.249623523370255 0.03067653565364041 0  -1.25 1.530808498934192e-16 0  -1.249623523370255 -0.0306765356536401 0  -1.248494320256466 -0.06133459290927215 0  -1.246613070848363 -0.09195570449958437 0  -1.243980908340246 -0.1225214254119507 0  -1.240599418248387 -0.1530133439990201 0  -1.236470637455976 -0.183413093069202 0  -1.231597052986177 -0.2137023609503762 0  -1.225981600504038 -0.2438629025201605 0  -1.219627662548161 -0.2738765501960873 0  -1.21253906649318 -0.3037252248790798 0  -1.2047200822443 -0.3333909468436228 0  -1.196175419665261 -0.3628558465680776 0  -1.186910225741296 -0.392102175498614 0  -1.176930081478776 -0.4211123167402752 0  -1.166240998543424 -0.4498687956687352 0  -1.154849415639108 -0.4783542904563621 0  -1.142762194629413 -0.5065516425062371 0  -1.129986616404304 -0.5344438667878523 0  -1.116530376494394 -0.5620141620682583 0  -1.102401580435444 -0.5892459210324971 0  -1.087608738885889 -0.6161227402872299 0  -1.07216076250034 -0.6426284302415269 0  -1.056066956562134 -0.6687470248588712 0  -1.039337015378182 -0.6944627912745025 0  -1.02198101643948 -0.7197602392723067 0  -1.004009414350806 -0.7446241306155416 0  -0.9854330345332579 -0.7690394882257834 0  -0.9662630667034213 -0.7929916052045566 0  -0.946511058133106 -0.8164660536922207 0  -0.9261889066936989 -0.8394486935587731 0  -0.9053088536893338 -0.8619256809213336 0  -0.8838834764831847 -0.8838834764831843 0  -0.8619256809213338 -0.9053088536893334 0  -0.8394486935587733 -0.9261889066936986 0  -0.8164660536922214 -0.9465110581331053 0  -0.7929916052045574 -0.9662630667034209 0  -0.7690394882257841 -0.9854330345332574 0  -0.7446241306155414 -1.004009414350806 0  -0.7197602392723066 -1.02198101643948 0  -0.6944627912745027 -1.039337015378182 0  -0.6687470248588716 -1.056066956562134 0  -0.6426284302415273 -1.07216076250034 0  -0.6161227402872302 -1.087608738885889 0  -0.5892459210324973 -1.102401580435444 0  -0.5620141620682586 -1.116530376494394 0  -0.5344438667878531 -1.129986616404304 0  -0.506551642506238 -1.142762194629413 0  -0.4783542904563629 -1.154849415639108 0  -0.4498687956687349 -1.166240998543424 0  -0.4211123167402749 -1.176930081478776 0  -0.3921021754986143 -1.186910225741296 0  -0.3628558465680781 -1.196175419665261 0  -0.3333909468436231 -1.2047200822443 0  -0.3037252248790802 -1.21253906649318 0  -0.2738765501960876 -1.219627662548161 0  -0.2438629025201608 -1.225981600504038 0  -0.2137023609503771 -1.231597052986176 0  -0.1834130930692029 -1.236470637455976 0  -0.1530133439990199 -1.240599418248387 0  -0.1225214254119506 -1.243980908340246 0  -0.09195570449958419 -1.246613070848363 0  -0.06133459290927254 -1.248494320256466 0  -0.03067653565364049 -1.249623523370255 0  -2.296212748401287e-16 -1.25 0  0.03067653565364003 -1.249623523370255 0  0.06133459290927207 -1.248494320256466 0  0.09195570449958373 -1.246613070848363 0  0.1225214254119501 -1.243980908340246 0  0.1530133439990195 -1.240599418248387 0  0.1834130930692024 -1.236470637455976 0  0.2137023609503766 -1.231597052986177 0  0.2438629025201604 -1.225981600504038 0  0.2738765501960872 -1.219627662548161 0  0.3037252248790797 -1.21253906649318 0  0.3333909468436227 -1.2047200822443 0  0.3628558465680776 -1.196175419665261 0  0.3921021754986139 -1.186910225741296 0  0.4211123167402745 -1.176930081478776 0  0.4498687956687345 -1.166240998543424 0  0.4783542904563625 -1.154849415639108 0  0.5065516425062375 -1.142762194629413 0  0.5344438667878527 -1.129986616404304 0  0.5620141620682583 -1.116530376494394 0  0.589245921032497 -1.102401580435444 0  0.6161227402872298 -1.087608738885889 0  0.6426284302415269 -1.07216076250034 0  0.6687470248588712 -1.056066956562134 0  0.6944627912745023 -1.039337015378182 0  0.7197602392723061 -1.02198101643948 0  0.7446241306155411 -1.004009414350806 0  0.7690394882257838 -0.9854330345332576 0  0.792991605204557 -0.9662630667034211 0  0.8164660536922209 -0.9465110581331058 0  0.8394486935587729 -0.9261889066936989 0  0.8619256809213336 -0.9053088536893338 0  0.8838834764831842 -0.8838834764831847 0  0.9053088536893333 -0.8619256809213339 0  0.9261889066936986 -0.8394486935587733 0  0.9465110581331053 -0.8164660536922214 0  0.9662630667034209 -0.7929916052045574 0  0.9854330345332574 -0.7690394882257843 0  1.004009414350806 -0.7446241306155416 0  1.02198101643948 -0.7197602392723066 0  1.039337015378182 -0.6944627912745027 0  1.056066956562134 -0.6687470248588716 0  1.07216076250034 -0.6426284302415274 0  1.087608738885889 -0.6161227402872304 0  1.102401580435443 -0.5892459210324974 0  1.116530376494394 -0.5620141620682587 0  1.129986616404304 -0.5344438667878532 0  1.142762194629413 -0.50655164250623
[...]
<PointData  Scalars="f_16164"> 
<DataArray  type="Float64"  Name="f_16164"  format="ascii">1.0000004991337450e+00  1.0000012269419256e+00  1.0000035075371794e+00  1.0000062349907375e+00  1.0000078025678829e+00  1.0000091792367833e+00  1.0000116660766512e+00  1.0000145071746407e+00  1.0000151426619182e+00  1.0000154344238259e+00  1.0000202433324226e+00  1.0000202155745603e+00  1.0000212250163594e+00  1.0000254632866910e+00  1.0000280558882912e+00  1.0000267750880334e+00  1.0000270701478944e+00  1.0000309613240645e+00  1.0000344282841400e+00  1.0000333399945192e+00  1.0000373735642987e+00  1.0000323981987507e+00  1.0000395604186549e+00  1.0000368862923064e+00  1.0000407049639390e+00  1.0000379618142070e+00  1.0000405755618218e+00  1.0000459170843405e+00  1.0000453300636389e+00  1.0000451085774489e+00  1.0000473674032053e+00  1.0000457312395787e+00  1.0000502995374754e+00  1.0000443514288195e+00  1.0000441817382033e+00  1.0000500402765953e+00  1.0000410499871235e+00  1.0000498107404956e+00  1.0000416462952459e+00  1.0000414047185826e+00  1.0000476442432975e+00  1.0000454327833488e+00  1.0000412767988001e+00  1.0000414648069147e+00  1.0000463726845388e+00  1.0000406653232088e+00  1.0000403909650384e+00  1.0000431845153670e+00  1.0000402735153586e+00  1.0000357543571166e+00  1.0000349281837251e+00  1.0000371248131508e+00  1.0000328143604607e+00  1.0000340465935891e+00  1.0000296177395662e+00  1.0000262696167055e+00  1.0000274931377624e+00  1.0000218755257471e+00  1.0000210365220497e+00  1.0000181412420122e+00  1.0000126594164385e+00  1.0000099112838017e+00  1.0000059809095576e+00  1.0000023716867785e+00  1.0000024629712796e+00  9.9999788958116931e-01  9.9999352964845445e-01  9.9998622872511100e-01  9.9998574409621854e-01  9.9997797770148156e-01  9.9997336930876923e-01  9.9996504343682724e-01  9.9996378140614406e-01  9.9996303753035098e-01  9.9994719324140713e-01  9.9995380701914616e-01  9.9993967852938992e-01  9.9992985208255203e-01  9.9993166095861907e-01  9.9992727081544341e-01  9.9991023276419577e-01  9.9990868239901742e-01  9.9990060296709127e-01  9.9988272069985329e-01  9.9988622847873176e-01  9.9987050556908241e-01  9.9985725487593680e-01  9.9986033949729136e-01  9.9984508050768761e-01  9.9982819437619008e-01  9.9981629911833958e-01  9.9981921065895085e-01  9.9981728917756851e-01  9.9981193245443123e-01  9.9980707798798096e-01  9.9980945487327177e-01  9.9981497570098499e-01  9.9983313318681422e-01  9.9984337047007565e-01  9.9986342505510617e-01  9.9986532629074887e-01  9.9990278183166181e-01  9.9994441289678904e-01  1.0000296194088201e+00  1.0000502217197480e+00  1.0001277847267103e+00  1.0001828852751051e+00  1.0002667442055879e+00  1.0003413902712319e+00  1.0004582699261062e+00  1.0005300073160266e+00  1.0006473293858889e+00  1.0007521815716500e+00  1.0008138007661715e+00  1.0008698570601096e+00  1.0009505327724422e+00  1.0010141070251666e+00  1.0010619546249777e+00  1.0010685448639116e+00  1.0010649673494907e+00  1.0010600249239674e+00  1.0009972131496612e+00  1.0009212110839292e+00  1.0008104960143869e+00  1.0006919059698234e+00  1.0005372749025421e+00  1.0003632152165876e+00  1.0001848605192121e+00  1.0000002146524747e+00  9.9981769343469085e-01  9.9963922218016465e-01  9.9946304403646391e-01  9.9931704730580950e-01  9.9917917207274909e-01  9.9908537633754191e-01  9.9900676588684889e-01  9.9894699773609252e-01  9.9893290608059238e-01  9.9891479529891969e-01  9.9895106888760099e-01  9.9899505656038545e-01  9.9906057708388862e-01  9.9908813060298596e-01  9.9916265000429438e-01  9.9926546943062278e-01  9.9935204927855481e-01  9.9946158199690427e-01  9.9954806362575144e-01  9.9960490678233860e-01  9.9975034779202243e-01  9.9982543018123338e-01  9.9989066169784313e-01  9.9993497319454372e-01  9.9998899377387984e-01  1.0000602124335838e+00  1.0000908328133646e+00  1.0001291089595006e+00  1.0001404949759720e+00  1.0001608072172536e+00  1.0001538948397048e+00  1.0001757420121165e+00  1.0001793600734417e+00  1.0001837137917855e+00  1.0001805677531403e+00  1.0001832300831250e+00  1.0001897574614151e+00  1.0001799905701871e+00  1.0001658758067018e+00  1.0001448784447473e+00  1.0001498492134371e+00  1.0001328389347170e+00  1.0001269498171945e+00  1.0001227340103100e+00  1.0001069275146017e+00  1.0001000833287379e+00  1.0001003618343367e+00  1.0000827386585942e+00  1.0000763293223800e+00  1.0000767486655866e+00  1.0000655430737413e+00  1.0000566129457156e+00  1.0000504671911072e+00  1.0000504314512531e+00  1.0000353518653664e+00  1.0000412466071957e+00  1.0000305147741635e+00  1.0000234971729236e+00  1.0000232476028195e+00  1.0000152012810013e+00  1.0000115320117113e+00  1.0000062073956442e+00  1.0000057910081406e+00  9.9999748687287215e-01  9.9999573002023290e-01  9.9999300929249280e-01  9.9998881099389259e-01  9.9998583240963468e-01  9.9998155428833790e-01  9.9997923761288676e-01  9.9997924389096393e-01  9.9997776746932288e-01  9.9997416546351614e-01  9.9996788876933207e-01  9.9996816389873033e-01  9.9996848384403880e-01  9.9996118247778720e-01  9.9996476657784605e-01  9.9995961913277231e-01  9.9995668770952328e-01  9.9995918619432866e-01  9.9995976558288502e-01  9.9995366993125268e-01  9.9995154645169049e-01  9.9995220851618138e-01  9.9995397792063989e-01  9.9995105467807155e-01  9.9995759987244737e-01  9.9995059537421616e-01  9.9994874267734479e-01  9.9995873988960271e-01  9.9994910171662155e-01  9.9995267771547980e-01  9.9995385837442308e-01  9.9995070984873768e-01  9.9995411232665132e-01  9.9995170034074532e-01  9.9995496841118947e-01  9.9995639038365447e-01  9.9995521533924536e-01  9.9996005002532640e-01  9.9995955719395702e-01  9.9995671401960173e-01  9.9995846547225031e-01  9.9996323575978063e-01  9.9996334884531690e-01  9.9996550274668239e-01  9.9996281833884604e-01  9.9997187410020816e-01  9.9996853106751671e-01  9.9997202534313367e-01  9.9996938621866571e-01  9.9997461420566236e-01  9.9997501961619906e-01  9.9997362701647430e-01  9.9997818885927958e-01  9.9998143179777155e-01  9.9998339300424999e-01  9.9998280413870766e-01  9.9998541645611849e-01  9.9998502497149278e-01  9.9998884317510861e-01  9.9999133879339619e-01  9.9999143204509588e-01  9.9999428477631513e-01  9.9999556040244797e-01  9.9999875347048706e-01  9.9952103667172609e-01  9.9992239216500312e-01  1.0004497037802333e+00  1.0009120165363607e+00  1.0012814267799983e+00  1.0016671676006748e+00  1.0021083164268807e+00  1.0026569888111498e+00  1.0030421158086957e+00  1.0034599436567919e+00  1.0038460487661802e+00  1.0042183315669935e+00  1.0046595335532720e+00  1.0049665389833780e+00  1.0053934637663158e+00  1.0056963319670138e+00  1.0059090963657311e+00  1.0064074571531103e+00  1.0066495726393145e+00  1.0071448288451978e+00  1.0074830596296696e+00  1.0075341260687449e+00  1.0079692365069193e+00  1.0080377278289083e+00  1.0080983201129952e+00  1.0081160238368458e+00  1.0083513949588387e+00  1.0086549837729271e+00  1.0088967573793790e+00  1.0089088991814537e+00  1.0088642288252188e+00  1.0088598071061414e+00  1.0087879198593805e+00  1.0089081662184498e+00  1.0090262505653820e+00  1.0085877511980870e+00  1.0087375957222209e+00  1.0087036009096371e+00  1.0085894247797076e+00  1.0085068651386970e+00  1.0081678406861327e+00  1.0081054371558504e+00  1.0079461801631582e+00  1.0078523420593204e+00  1.0076961905709174e+00  1.0075139160886686e+00  1.0072103707771745e+00  1.0067797683651505e+00  1.0066085626227197e+00  1.0063801378645043e+00  1.0059266160856859e+00  1.0057575931203615e+00  1.0052715166822757e+00  1.0050256719885347e+00  1.0047077853300717e+00  1.0043325185426584e+00  1.0040278064971175e+00  1.0035915307420717e+00  1.0030948084452065e+00  1.0027180411055110e+00  1.0022940698045077e+00  1.0018772147323978e+00  1.0014255436607469e+00  1.0010015656448041e+00  1.0005247772712700e+00  1.0000743454731851e+00  9.9962701848838498e-01  9.9922292353185671e-01  9.9890663028927651e-01  9.9842543200384160e-01  9.9800602237092595e-01  9.9754153085588804e-01  9.9709918966114053e-01  9.9669358669512798e-01  9.9629685284668523e-01  9.9586113487281835e-01  9.9557230996182311e-01  9.9516578369920983e-01  9.9471580070653987e-01  9.9432301954191349e-01  9.9400082798538691e-01  9.9364278837240871e-01  9.9322999280334123e-01  9.9305645218461647e-01  9.9266455736234294e-01  9.9238415826686299e-01  9.9213321043976754e-01  9.9190809834237703e-01  9.9186433255357398e-01  9.9131497987427686e-01  9.9128013716584984e-01  9.9095024261261022e-01  9.9103508088313430e-01  9.9117687187499059e-01  9.9115011932102182e-01  9.9108697044066529e-01  9.9118895635527982e-01  9.9093578672938210e-01  9.9095215132518200e-01  9.9098579821342436e-01  9.9102125633214611e-01  9.9089466508393620e-01  9.9107581579841875e-01  9.9108214216891433e-01  9.9123128068413169e-01  9.9141208896996502e-01  9.9161828748257541e-01  9.9169531573298442e-01  9.9204447327594258e-01  9.9216674215252287e-01  9.9245416133433728e-01  9.9267355315817385e-01  9.9297999228926537e-01  9.9356860960877080e-01  9.9393738346030114e-01  9.9428430194738127e-01  9.9460533370824555e-01  9.9502139968322423e-01  9.9542721778779819e-01  9.9583272717635496e-01  9.9627528116306630e-01  9.9670556056805437e-01  9.9708367618752891e-01  9.9751131698087914e-01  9.9792869500627135e-01  9.9833681616815628e-01  9.9875112580803826e-01  9.9916443934548416e-01  9.9956523987469037e-01  9.9997364714891823e-01  1.0003801041717646e+00  1.0007826535338293e+00  1.0011947933969361e+00  1.0016007104088918e+00  1.0019980785718938e+00  1.0024155963158621e+00  1.0028718829852357e+00  1.0032845929545589e+00  1.0036840165786109e+00  1.0040748194100391e+00  1.0044992435431630e+00  1.0048845634486419e+00  1.0052953758185670e+00  1.0056913803679917e+00  1.0060486897969545e+00  1.0064081067626094e+00  1.0067885934475964e+00  1.0072252032097619e+00  1.0075819931862626e+00  1.0077541334085516e+00  1.0079100099060383e+00  1.0081840948147627e+00  1.0083610219461205e+00  1.0085667195161105e+00  1.0088968225510730e+00  1.0089635047653909e+00  1.0089521813607416e+00  1.0090039903437318e+00  1.0091980482420362e+00  1.0091050671509774e+00  1.0090779310063398e+00  1.0089876294829281e+00  1.0090840555976066e+00  1.0087626061661252e+00  1.0088819678435883e+00  1.0087889155420993e+00  1.0086072003842736e+00  1.0087018330003281e+00  1.0082848308945342e+00  1.0081209241506321e+00  1.0081841679483792e+00  1.0080813880345867e+00  1.0080847685294843e+00  1.0076272638526833e+00  1.0074539048492441e+00  1.0070421950386159e+00  1.0068191608276447e+00  1.0065069318323685e+00  1.0061167360655725e+00  1.0057617039578213e+00  1.0054886732268744e+00  1.0050537315919612e+00  1.0045482806342176e+00  1.0042236439369334e+00  1.0038865905422147e+00  1.0034176587734951e+00  1.0029708482519728e+00  1.0025883348484770e+00  1.0022151185717063e+00  1.0018033589559801e+00  1.0013271013121763e+00  1.0009038976559002e+00  1.0004727925443997e+00  1.0000750156580855e+00  9.9965028512725329e-01  9.9919093503209133e-01  9.9873048078414817e-01  9.9830798630146111e-01  9.9789438262658692e-01  9.9742721320981798e-01  9.9701980373065646e-01  9.9659582307969030e-01  9.9623714130196794e-01  9.9577615639965722e-01  9.9531037150439128e-01  9.9496160065023120e-01  9.9472590932560323e-01  9.9447647084865820e-01  9.9407869442120000e-01  9.9374156689187088e-01  9.9339326626693736e-01  9.9302164524476833e-01  9.9287604514580186e-01  9.9278440801453471e-01  9.9244580825634476e-01  9.9224856880038592e-01  9.9201337332174233e-01  9.9195416000917480e-01  9.9201640112768685e-01  9.9172715188692107e-01  9.9156582314300701e-01  9.9139761249475000e-01  9.9119650246560109e-01  9.9089302260185308e-01  9.9079708089224294e-01  9.9078224612847943e-01  9.9089199940987882e-01  9.9123399417011837e-01  9.9119068431610213e-01  9.9136247097820962e-01  9.9141893974215378e-01  9.9171228631707298e-01  9.9167534803843871e-01  9.9149277755490806e-01  9.9177369796795378e-01  9.9203489594626804e-01  9.9240000936574946e-01  9.9250569051597881e-01  9.9265462505136148e-01  9.9290756543178738e-01  9.9337233924415735e-01  9.9358084316111528e-01  9.9385809771990941e-01  9.9419328284694464e-01  9.9460535911778325e-01  9.9491739643221255e-01  9.9542936054436737e-01  9.9581520394883583e-01  9.9616757171553372e-01  9.9655644219508799e-01  9.9700697034469576e-01  9.9736815054495698e-01  9.9775185574979652e-01  9.9817250207428099e-01  9.9866357328280830e-01  9.9910142351383757e-01  1.0000000338496842e+00  1.0000007227958927e+00  9.9999922912072547e-01  1.0000015723758628e+00  9.9999874753249463e-01  1.0000017086739905e+00  9.9999796526335794e-01  1.0000030941746187e+00  9.9999649522685741e-01  1.0000029675840350e+00  9.9999798816657193e-01  1.0000030932028900e+00  9.9999685497644064e-01  1.0000020200018609e+00  9.9999889279257259e-01  1.0000004595190641e+00  1.0000012120747912e+00  9.9999697296843126e-01  1.0000002881117767e+00  1.0000024369598834e+00  9.9999959836293173e-01  1.0000008941546592e+00  9.9999904843979170e-01  9.9999848004058833e-01  1.0000055624243975e+00  1.0000020694288287e+00  9.9999438510655325e-01  9.9999971645296981e-01  9.9999861809545276e-01  1.0000012437153036e+00  9.9998441906239355e-01  9.9999739066824112e-01  1.0000153745954055e+00  1.0000021501717753e+00  9.9999793524754954e-01  9.9997296396238911e-01  1.0000305291772185e+00  9.9999999285533081e-01  1.0000124719888746e+00  1.0000006172318503e+00  9.9999934168620730e-01  1.0000005678209725e+00  1.0000031833833305e+00  9.9999674340426914e-01  1.0000012037399340e+00  9.9995704182484713e-01  1.0000335236908124e+00  9.9998244970892647e-01  9.9999848940865976e-01  1.0000019223137853e+00  9.9999798768243842e-01  1.0000241983717655e+00  9.9999669926872392e-01  1.0000032891494597e+00  1.0000295234835987e+00  1.0000083497670178e+00  9.9996423494024811e-01  1.0000023193544767e+00  9.9999738790561232e-01  1.0001224287285646e+00  9.9991439358203449e-01  9.9999382750340737e-01  9.9997491879018918e-01  1.0000585242478131e+00  9.9995581362491981e-01  9.9988565457731859e-01  1.0000038141479919e+00  9.9999660386501199e-01  1.0000574553871564e+00  1.0000037551156451e+00  9.9992200721101521e-01  1.0001239255750789e+00  9.9991605219027746e-01  1.0000647096978474e+00  9.9999712780611738e-01  1.0001212351948423e+00  1.0001138270926799e+00  1.0000007173106671e+00  9.9999955745391478e-01  1.0000042997271008e+00  1.0000039464141079e+00  9.9999664946034750e-01  9.9982058784918526e-01  9.9999630126294836e-01  1.0000004615036506e+00  9.9985213757314684e-01  1.0001417295525368e+00  9.9988521766915406e-01  1.0000016097852693e+00  1.0000034825641442e+00  9.9975180486404669e-01  9.9999875340474376e-01  1.0001955077710007e+00  9.9999904333510359e-01  1.0002170686533232e+00  1.0000040010330455e+00  9.9999603367640599e-01  9.9999785607782976e-01  9.9999621048464904e-01  1.0000018034278235e+00  9.9976098102317679e-01  1.0000001882803273e+00  1.0000010235598753e+00  9.9999993222857231e-01  9.9988302991005840e-01  9.9999833812724426e-01  9.9999913314058930e-01  9.9999852957459534e-01  1.0000999619374034e+00  1.0000017600741498e+00  1.0000022804927948e+00  9.9999990573600783e-01  1.0000006454607306e+00  1.0003331116875160e+00  9.9971433560181810e-01  1.0000011581203825e+00  1.0000000569832899e+00  1.0000036307313431e+00  1.0000023318178468e+00  1.0001981086270362e+00  9.9988980152232187e-01  1.0000034540946225e+00  1.0000001679309247e+00  1.0002229456614957e+00  1.0000016335539199e+00  1.0001698571969195e+00  9.9958510539797674e-01  9.9999970153602979e-01  9.9999942364943339e-01  1.0000023306172883e+00  9.9989418095285942e-01  1.0000043088789052e+00  9.9999886615122446e-01  9.9999637297807020e-01  9.9996984956573531e-01  1.0000811973775177e+00  1.0000530302538908e+00  1.0001159845758636e+00  1.0004690172925457e+00  9.9999659654643436e-01  9.9999717566679758e-01  9.9999779436628267e-01  1.0003927773792956e+00  1.0000032369279217e+00  9.9982929244575403e-01  9.9977937200698375e-01  1.0000005039898821e+00  9.9999857790387348e-01  1.0000008627714010e+00  9.9999734655940642e-01  1.0000023600306658e+00  1.0000025220743061e+00  9.9999910820927607e-01  9.9999703051583588e-01  1.0000015961681690e+00  1.0000010986826637e+00  1.0002841555309463e+00  9.9999802795493209e-01  9.9999699981745538e-01  9.9999732951575016e-01  9.9999874061987593e-01  1.0000030147383181e+00  9.9999186705093046e-01  9.9974785193897264e-01  1.0000024112791388e+00  1.0000010590291366e+00  9.9973543738539872e-01  9.9954182733781849e-01  9.9999841549079083e-01  9.9999912767579968e-01  9.9999948771014968e-01  9.9999669710627859e-01  1.0000019826705224e+00  9.9999254497905199e-01  9.9949105875008326e-01  9.9995895280852598e-01  1.0000015178346633e+00  1.0000019702010472e+00  1.0000006182435459e+00  1.0005924924247238e+00  9.9999907952926326e-01  9.9999818862957912e-01  9.9999568935162086e-01  9.9936894376667995e-01  9.9954398507353226e-01  9.9999760767523549e-01  9.9999933973517641e-01  1.0005384625916485e+00  1.0005050874113941e+00  9.9997649029583824e-01  1.0006325620039669e+00  1.0000066286357323e+00  1.0000013138456991e+00  1.0005429898442109e+00  1.0000006441233085e+00  1.0000031271337897e+00  9.9999986382776396e-01  1.0000057325397111e+00  9.9999953687528120e-01  1.0000038628320311e+00  9.9999986134005814e-01  1.0000029652631550e+00  9.9937872897990943e-01  9.9928631368355403e-01  9.9999762128612324e-01  9.9999957992149269e-01  9.9999885490439089e-01  9.9999995744117776e-01  9.9999964049489010e-01  9.9999693851923144e-01  1.0001432220371411e+00  1.0006728416707200e+00  1.0000013560191723e+00  1.0000027877969935e+00  1.0000006778649033e+00  9.9999580427441348e-01  9.9999968157502472e-01  1.0000003003640836e+00  1.0000024598732582e+00  1.0007553902416380e+00  9.9999670825363673e-01  9.9999581703744900e-01  9.9999691460832452e-01  1.0000091982233448e+00  1.0000007662291561e+00  1.0000002442604237e+00  1.0000011069516404e+00  1.0002413855844656e+00  9.9999990410256390e-01  9.9984805964717505e-01  9.9999453841974317e-01  9.9930194384089166e-01  9.9974241108261586e-01  9.9999882733624346e-01  9.9999688344637627e-01  1.0000034086183522e+00  9.9998965818593444e-01  9.9999761433673784e-01  1.0000042730070660e+00  9.9917741571048346e-01  1.0002122254730268e+00  9.9999511362574001e-01  9.9927194421411480e-01  1.0000013889804720e+00  1.0000215832844157e+00  1.0005789331587416e+00  1.0000512901395782e+00  1.0000015248444631e+00  9.9965132400445900e-01  1.0000043462304165e+00  1.0008961331311026e+00  9.9999836819618670e-01  1.0009359566095719e+00  9.9999650947132468e-01  9.9999904632645065e-01  9.9999545318091376e-01  1.0000017960853760e+00  1.0000036005980395e+00  9.9999713946877811e-01  9.9985662582018286e-01  9.9999655562219936e-01  9.9999656533205961e-01  1.0000035913953340e+00  1.0000038306123598e+00  9.9901176108322653e-01  9.9999844457156828e-01  1.0008725544888872e+00  1.0000016704175654e+00  1.0000969344440709e+00  9.9917931772655655e-01  9.9902110929452126e-01  1.0000109013752683e+00  1.0000047092190316e+00  1.0000024593679138e+00  9.9990305977076921e-01  1.0000002807191661e+00  9.9999793134940129e-01  9.9999780238777003e-01  9.9993381131020187e-01  9.9998747979443658e-01  1.0000067010882749e+00  1.0000026566498976e+00  1.0000017657075526e+00  1.0000364685472216e+00  9.9917729762541641e-01  9.9999747232154124e-01  9.9998453393587539e-01  1.0010881423455025e+00  1.0000000365830475e+00  1.0000005603862470e+00  1.0000111030659411e+00  9.9999795725208585e-01  9.9903702430959729e-01  9.9999945678966440e-01  1.0009474484628209e+00  1.0000035576851467e+00  1.0000042013165646e+00  1.0000029681391920e+00  9.9968597039613916e-01  1.0011607213756168e+00  1.0000014764504916e+00  1.0000024669859608e+00  9.9999971688796796e-01  1.0000185177446337e+00  1.0004752179095833e+00  9.9886969639325829e-01  1.0000001219237973e+00  1.0000011999130476e+00  9.9885257205704281e-01  1.0002891578266675e+00  9.9998734828766223e-01  9.9999538716163550e-01  1.0000033067389489e+00  9.9999877495917500e-01  9.9999931589849289e-01  9.9950199161392184e-01  9.9999822567054852e-01  1.00000108448